         0      -5729.782607896      -5729.731023975      -5729.772184664          2.632442929          2.437647259
         1      -5729.782607896      -5729.733003816      -5729.772184664          2.623618346          2.443132665
         2      -5729.782607896      -5729.733281524      -5729.772184664          2.606348103          2.447625785
         3      -5729.782607896      -5729.733476240      -5729.772184664          2.604945343          2.456327198
         4      -5729.782607896      -5729.733592029      -5729.772184664          2.594765468          2.462404057
         5      -5729.782607896      -5729.733732068      -5729.772184664          2.594090258          2.469780052
         6      -5729.782607896      -5729.733842182      -5729.772184664          2.587673098          2.473603732
         7      -5729.782607896      -5729.733966427      -5729.772184664          2.588865259          2.474257239
         8      -5729.782607896      -5729.735173603      -5729.772184664          2.640116503          2.444491227
         9      -5729.782607896      -5729.735304097      -5729.772184664          2.638135325          2.440146559
        10      -5729.782607896      -5729.735365755      -5729.772184664          2.641247573          2.434863061
        11      -5729.782607896      -5729.735425240      -5729.772184664          2.641334600          2.430975829
        12      -5729.782607896      -5729.735480681      -5729.772184664          2.647166867          2.424025067
        13      -5729.782607896      -5729.735523367      -5729.772184664          2.646307540          2.421307693
        14      -5729.782607896      -5729.735549641      -5729.772184664          2.647462252          2.418284914
        15      -5729.782607896      -5729.735615483      -5729.772184664          2.654097261          2.408172946
        16      -5729.782607896      -5729.735656084      -5729.772184664          2.653238600          2.406111644
        17      -5729.782607896      -5729.735702195      -5729.772184664          2.657083672          2.399705431
        18      -5729.782607896      -5729.735728096      -5729.772184664          2.656455632          2.397990393
        19      -5729.782607896      -5729.735741784      -5729.772184664          2.657658605          2.397331946
        20      -5729.782607896      -5729.735754649      -5729.772184664          2.657476946          2.395774145
        21      -5729.782607896      -5729.735767393      -5729.772184664          2.658443602          2.395266972
        22      -5729.782607896      -5729.735779423      -5729.772184664          2.658142010          2.393927647
        23      -5729.782607896      -5729.735787240      -5729.772184664          2.658530413          2.393793018
        24      -5729.782607896      -5729.736029624      -5729.772184664          2.662895286          2.381097504
        25      -5729.782607896      -5729.735995955      -5729.772184664          2.656601706          2.385030364
        26      -5729.782607896      -5729.736019387      -5729.772184664          2.657235248          2.387430933
        27      -5729.782607896      -5729.735973507      -5729.772184664          2.652696101          2.393055024
        28      -5729.782607896      -5729.735986992      -5729.772184664          2.652696514          2.395179488
        29      -5729.782607896      -5729.735954533      -5729.772184664          2.648810940          2.398155049
        30      -5729.782607896      -5729.735955327      -5729.772184664          2.648756334          2.400447013
        31      -5729.782607896      -5729.735920089      -5729.772184664          2.645273063          2.403848179
        32      -5729.782607896      -5729.735919048      -5729.772184664          2.645093101          2.406061624
        33      -5729.782607896      -5729.735887381      -5729.772184664          2.642035509          2.410586561
        34      -5729.782607896      -5729.735847716      -5729.772184664          2.638456700          2.414181681
        35      -5729.782607896      -5729.735845085      -5729.772184664          2.638265344          2.416348548
        36      -5729.782607896      -5729.735805053      -5729.772184664          2.634711981          2.419890933
        37      -5729.782607895      -5729.735804415      -5729.772184664          2.634551106          2.421645509
        38      -5729.782607896      -5729.735500314      -5729.772184664          2.613806278          2.450265688
        39      -5729.782607896      -5729.735556281      -5729.772184664          2.614732188          2.452606277
        40      -5729.782607896      -5729.735362675      -5729.772184664          2.599957505          2.471519458
        41      -5729.782607896      -5729.735383943      -5729.772184664          2.600642267          2.473115371
        42      -5729.782607896      -5729.735375358      -5729.772184664          2.599923058          2.474294894
        43      -5729.782607896      -5729.735243225      -5729.772184664          2.586249030          2.491549819
        44      -5729.782607896      -5729.735258250      -5729.772184664          2.586699288          2.491857197
        45      -5729.782607896      -5729.735274117      -5729.772184664          2.583628157          2.488492473
        46      -5729.782607896      -5729.735299053      -5729.772184664          2.585308053          2.489087418
        47      -5729.782607896      -5729.735311074      -5729.772184664          2.585300778          2.487903681
        48      -5729.782607896      -5729.735323362      -5729.772184664          2.586201980          2.487342196
        49      -5729.782607896      -5729.735336144      -5729.772184664          2.585965605          2.485691358
        50      -5729.782607895      -5729.735349500      -5729.772184664          2.586942535          2.484925303
        51      -5729.782607896      -5729.735358486      -5729.772184664          2.586857579          2.484036619
        52      -5729.782607896      -5729.734690126      -5729.772184664          2.571357311          2.551330771
        53      -5729.782607896      -5729.734560022      -5729.772184664          2.559075666          2.563067599
        54      -5729.782607896      -5729.734589151      -5729.772184664          2.560158891          2.564971582
        55      -5729.782607896      -5729.734577652      -5729.772184664          2.557826868          2.568188045
        56      -5729.782607896      -5729.734592721      -5729.772184664          2.557786270          2.568804209
        57      -5729.782607896      -5729.734599212      -5729.772184664          2.554956664          2.568474333
        58      -5729.782607896      -5729.734614999      -5729.772184664          2.555544613          2.569086952
        59      -5729.782607896      -5729.734630489      -5729.772184664          2.553960031          2.568186933
        60      -5729.782607895      -5729.734649843      -5729.772184664          2.554583412          2.568368054
        61      -5729.782607896      -5729.734684764      -5729.772184664          2.554018201          2.566929411
        62      -5729.782607896      -5729.734719562      -5729.772184664          2.552958647          2.563446250
        63      -5729.782607896      -5729.734753878      -5729.772184664          2.554199316          2.563245319
        64      -5729.782607896      -5729.734796862      -5729.772184664          2.553625037          2.558126461
        65      -5729.782607896      -5729.734839395      -5729.772184664          2.555097661          2.557751925
        66      -5729.782607895      -5729.734972595      -5729.772184664          2.558632273          2.534726019
        67      -5729.782607896      -5729.735175584      -5729.772184664          2.562395324          2.534623177
        68      -5729.782607896      -5729.735245743      -5729.772184664          2.570276541          2.505366539
        69      -5729.782607896      -5729.735439044      -5729.772184664          2.574681523          2.505055209
        70      -5729.782607896      -5729.735468417      -5729.772184664          2.577201090          2.500332212
        71      -5729.782607896      -5729.735454737      -5729.772184664          2.594163798          2.458422937
        72      -5729.782607896      -5729.735682069      -5729.772184664          2.598733870          2.458256201
        73      -5729.782607896      -5729.735653209      -5729.772184664          2.616280817          2.419647043
        74      -5729.782607896      -5729.735792226      -5729.772184664          2.622146862          2.419450328
        75      -5729.782607896      -5729.735837844      -5729.772184664          2.622145590          2.415786704
        76      -5729.782607896      -5729.735841911      -5729.772184664          2.630093212          2.405730379
        77      -5729.782607896      -5729.735880957      -5729.772184664          2.630152382          2.402299760
        78      -5729.782607896      -5729.735886486      -5729.772184664          2.637537282          2.392938756
        79      -5729.782607896      -5729.735919287      -5729.772184664          2.637607603          2.389634954
        80      -5729.782607896      -5729.735926994      -5729.772184664          2.643013769          2.383007738
        81      -5729.782607896      -5729.735949027      -5729.772184664          2.643284957          2.379989384
        82      -5729.782607896      -5729.735958408      -5729.772184664          2.648199060          2.373926860
        83      -5729.782607896      -5729.735977428      -5729.772184664          2.648440445          2.371158134
        84      -5729.782607896      -5729.735996788      -5729.772184664          2.651687936          2.365525338
        85      -5729.782607896      -5729.736009715      -5729.772184664          2.655832373          2.360164418
        86      -5729.782607896      -5729.736025278      -5729.772184664          2.655965987          2.357878097
        87      -5729.782607896      -5729.736040041      -5729.772184664          2.659467124          2.353211399
        88      -5729.782607896      -5729.736053495      -5729.772184664          2.659524946          2.351374619
        89      -5729.782607896      -5729.736087091      -5729.772184664          2.664961864          2.342815731
        90      -5729.782607896      -5729.736106242      -5729.772184664          2.664568814          2.341241987
        91      -5729.782607896      -5729.736142295      -5729.772184664          2.667870282          2.335372235
        92      -5729.782607896      -5729.736160126      -5729.772184664          2.667228289          2.334187450
        93      -5729.782607896      -5729.736171721      -5729.772184664          2.667358032          2.333314465
        94      -5729.782607896      -5729.736255539      -5729.772184664          2.668190498          2.328209111
        95      -5729.782607896      -5729.736296569      -5729.772184664          2.666344862          2.327480225
        96      -5729.782607896      -5729.736287614      -5729.772184664          2.662213203          2.333212079
        97      -5729.782607896      -5729.736332179      -5729.772184664          2.659554877          2.332762518
        98      -5729.782607896      -5729.736330584      -5729.772184664          2.658689748          2.335691755
        99      -5729.782607896      -5729.736332716      -5729.772184664          2.656181505          2.336542831
       100      -5729.782607896      -5729.736326664      -5729.772184664          2.655178929          2.339751367
       101      -5729.782607896      -5729.736325000      -5729.772184664          2.652577218          2.340820350
       102      -5729.782607896      -5729.736327232      -5729.772184664          2.652078338          2.342360707
