     183
 i =       0, E =    -5729.7310239752
 Au         0.0004645571        0.0009369867        0.0007448386
 Au         0.0005756338        2.9559369626        0.0003843867
 Au         0.0006867481        5.9119369385        0.0000238127
 Au         2.9564645527        0.0008258582        0.0006290672
 Au         2.9565756295        2.9558258341        0.0002686152
 Au         2.9566867438        5.9118258101       -0.0000919588
 Au         5.9124645484        0.0007147298        0.0005132957
 Au         5.9125756251        2.9557147057        0.0001528437
 Au         5.9126867394        5.9117146816       -0.0002077302
 Au         8.6704645443        0.0006110450        0.0004052789
 Au         8.6705756210        2.9556110209        0.0000448269
 Au         8.6706867354        5.9116109968       -0.0003157470
 Au        11.6264645399        0.0004999165        0.0002895074
 Au        11.6265756167        2.9554998924       -0.0000709446
 Au        11.6266867310        5.9114998684       -0.0004315185
 Au         1.4786019763        1.4791363463        2.0905066488
 Au         1.4787130530        4.4341363222        2.0901461968
 Au         1.4788241674        7.3901362981        2.0897856228
 Au         4.4346019719        1.4790252178        2.0903908773
 Au         4.4347130487        4.4340251938        2.0900304253
 Au         4.4348241630        7.3900251697        2.0896698514
 Au         7.1926019679        1.4789215330        2.0902828605
 Au         7.1927130446        4.4339215090        2.0899224085
 Au         7.1928241590        7.3899214849        2.0895618346
 Au        10.1486019635        1.4788104046        2.0901670890
 Au        10.1487130403        4.4338103805        2.0898066370
 Au        10.1488241546        7.3898103564        2.0894460631
 Au        13.1046019592        1.4786992761        2.0900513175
 Au        13.1047130359        4.4336992521        2.0896908656
 Au        13.1048241502        7.3896992280        2.0893302916
 Au         0.0006282856        0.0014468584        4.1807448043
 Au         0.0007393623        2.9564468344        4.1803843524
 Au         0.0008504766        5.9124468103        4.1800237784
 Au         2.9566282812        0.0013357300        4.1806290329
 Au         2.9567393579        2.9563357059        4.1802685809
 Au         2.9568504723        5.9123356818        4.1799080069
 Au         5.9126282768        0.0012246015        4.1805132614
 Au         5.9127393536        2.9562245775        4.1801528094
 Au         5.9128504679        5.9122245534        4.1797922355
 Au         8.6706282728        0.0011209167        4.1804052446
 Au         8.6707393495        2.9561208927        4.1800447926
 Au         8.6708504639        5.9121208686        4.1796842187
 Au        11.6266282684        0.0010097883        4.1802894731
 Au        11.6267393452        2.9560097642        4.1799290211
 Au        11.6268504595        5.9120097401        4.1795684472
 Au         1.4787657048        1.4796462181        6.2705066145
 Au         1.4788767815        4.4346461940        6.2701461625
 Au         1.4789878959        7.3906461699        6.2697855885
 Au         4.4347657004        1.4795350896        6.2703908430
 Au         4.4348767772        4.4345350655        6.2700303910
 Au         4.4349878915        7.3905350414        6.2696698171
 Au         7.1927656964        1.4794314048        6.2702828262
 Au         7.1928767731        4.4344313807        6.2699223742
 Au         7.1929878874        7.3904313566        6.2695618003
 Au        10.1487656920        1.4793202763        6.2701670547
 Au        10.1488767688        4.4343202523        6.2698066027
 Au        10.1489878831        7.3903202282        6.2694460288
 Au        13.1047656877        1.4792091479        6.2700512832
 Au        13.1048767644        4.4342091238        6.2696908313
 Au        13.1049878787        7.3902090997        6.2693302573
 Au         0.0007920140        0.0019567302        8.3607447700
 Au         0.0009030908        2.9569567061        8.3603843181
 Au         0.0010142051        5.9129566821        8.3600237441
 Au         2.9567920097        0.0018456017        8.3606289986
 Au         2.9569030864        2.9568455777        8.3602685466
 Au         2.9570142008        5.9128455536        8.3599079726
 Au         5.9127920053        0.0017344733        8.3605132271
 Au         5.9129030821        2.9567344492        8.3601527751
 Au         5.9130141964        5.9127344251        8.3597922012
 Au         8.6707920013        0.0016307885        8.3604052103
 Au         8.6709030780        2.9566307644        8.3600447583
 Au         8.6710141923        5.9126307403        8.3596841843
 Au        11.6267919969        0.0015196600        8.3602894388
 Au        11.6269030737        2.9565196360        8.3599289868
 Au        11.6270141880        5.9125196119        8.3595684129
 Au         1.4789294333        1.4801560898       10.4505065802
 Au         1.4790405100        4.4351560657       10.4501461282
 Au         1.4791516243        7.3911560417       10.4497855542
 Au         4.4349294289        1.4800449614       10.4503908087
 Au         4.4350405057        4.4350449373       10.4500303567
 Au         4.4351516200        7.3910449132       10.4496697828
 Au         7.1929294249        1.4799412766       10.4502827919
 Au         7.1930405016        4.4349412525       10.4499223399
 Au         7.1931516159        7.3909412284       10.4495617660
 Au        10.1489294205        1.4798301481       10.4501670204
 Au        10.1490404972        4.4348301240       10.4498065684
 Au        10.1491516116        7.3908301000       10.4494459945
 Au        13.1049294161        1.4797190197       10.4500512489
 Au        13.1050404929        4.4347189956       10.4496907970
 Au        13.1051516072        7.3907189715       10.4493302230
  N         4.8561580283        5.9132220687       12.0318335683
  N         9.5291581750        5.9150466350       12.0336503067
  N         7.1931592028        5.9361351867       12.0397392343
  H        10.3503823019        5.9251897183       12.6399169075
  H         4.0541830545        5.9185295416       12.6657643391
  C         8.3711853655        5.9366723216       12.7071930316
  C         5.9996871996        5.9358672825       12.7548860206
  N         8.3032399943        5.9672414400       14.0726919754
  N         5.9295410165        5.9671338732       14.0989849653
  H         9.1488605977        5.9266785687       14.6376638053
  C         7.0713707727        5.9988799071       14.8282363741
  N         7.1650188004        5.9332336562       16.1175407240
  H         7.2686729042        6.7222058942       16.7416404311
 Au         7.1935118458        5.9372333627       21.0427391605
 Au         5.9136354765        7.1955192099       22.9916358242
 Au         8.6715318008        4.4374155475       22.9918642293
 Au         5.9135317673        4.4365192323       22.9919723681
 Au         8.6716354724        7.1954155251       22.9915278074
 Au         1.4795025613        1.4819408850       25.0825064601
 Au         1.4796136381        4.4369408609       25.0821460081
 Au         1.4797247524        7.3929408368       25.0817854342
 Au         4.4355025570        1.4818297565       25.0823906886
 Au         4.4356136337        4.4368297324       25.0820302366
 Au         4.4357247480        7.3928297084       25.0816696627
 Au         7.1935025529        1.4817260717       25.0822826718
 Au         7.1936136296        4.4367260476       25.0819222198
 Au         7.1937247440        7.3927260236       25.0815616459
 Au        10.1495025485        1.4816149433       25.0821669003
 Au        10.1496136253        4.4366149192       25.0818064484
 Au        10.1497247396        7.3926148951       25.0814458744
 Au        13.1055025442        1.4815038148       25.0820511289
 Au        13.1056136209        4.4365037907       25.0816906769
 Au        13.1057247353        7.3925037667       25.0813301029
 Au         0.0015288706        0.0042513971       27.1727446157
 Au         0.0016399473        2.9592513730       27.1723841637
 Au         0.0017510616        5.9152513490       27.1720235897
 Au         2.9575288662        0.0041402687       27.1726288442
 Au         2.9576399430        2.9591402446       27.1722683922
 Au         2.9577510573        5.9151402205       27.1719078183
 Au         5.9135288619        0.0040291402       27.1725130727
 Au         5.9136399386        2.9590291161       27.1721526207
 Au         5.9137510529        5.9150290921       27.1717920468
 Au         8.6715288578        0.0039254554       27.1724050559
 Au         8.6716399345        2.9589254313       27.1720446039
 Au         8.6717510489        5.9149254073       27.1716840300
 Au        11.6275288534        0.0038143270       27.1722892844
 Au        11.6276399302        2.9588143029       27.1719288325
 Au        11.6277510445        5.9148142788       27.1715682585
 Au         1.4796662898        1.4824507567       29.2625064258
 Au         1.4797773665        4.4374507327       29.2621459738
 Au         1.4798884809        7.3934507086       29.2617853999
 Au         4.4356662854        1.4823396283       29.2623906543
 Au         4.4357773622        4.4373396042       29.2620302023
 Au         4.4358884765        7.3933395801       29.2616696284
 Au         7.1936662814        1.4822359435       29.2622826375
 Au         7.1937773581        4.4372359194       29.2619221855
 Au         7.1938884725        7.3932358953       29.2615616116
 Au        10.1496662770        1.4821248150       29.2621668660
 Au        10.1497773538        4.4371247909       29.2618064141
 Au        10.1498884681        7.3931247669       29.2614458401
 Au        13.1056662727        1.4820136866       29.2620510946
 Au        13.1057773494        4.4370136625       29.2616906426
 Au        13.1058884637        7.3930136384       29.2613300686
 Au         0.0016925991        0.0047612689       31.3527445814
 Au         0.0018036758        2.9597612448       31.3523841294
 Au         0.0019147901        5.9157612207       31.3520235554
 Au         2.9576925947        0.0046501404       31.3526288099
 Au         2.9578036714        2.9596501164       31.3522683579
 Au         2.9579147858        5.9156500923       31.3519077840
 Au         5.9136925903        0.0045390120       31.3525130384
 Au         5.9138036671        2.9595389879       31.3521525864
 Au         5.9139147814        5.9155389638       31.3517920125
 Au         8.6716925863        0.0044353272       31.3524050216
 Au         8.6718036630        2.9594353031       31.3520445696
 Au         8.6719147774        5.9154352790       31.3516839957
 Au        11.6276925819        0.0043241987       31.3522892501
 Au        11.6278036587        2.9593241746       31.3519287981
 Au        11.6279147730        5.9153241506       31.3515682242
 Au         1.4798300183        1.4829606285       33.4425063915
 Au         1.4799410950        4.4379606044       33.4421459395
 Au         1.4800522094        7.3939605803       33.4417853656
 Au         4.4358300139        1.4828495000       33.4423906200
 Au         4.4359410907        4.4378494760       33.4420301680
 Au         4.4360522050        7.3938494519       33.4416695941
 Au         7.1938300099        1.4827458152       33.4422826032
 Au         7.1939410866        4.4377457912       33.4419221512
 Au         7.1940522009        7.3937457671       33.4415615773
 Au        10.1498300055        1.4826346868       33.4421668317
 Au        10.1499410823        4.4376346627       33.4418063798
 Au        10.1500521966        7.3936346386       33.4414458058
 Au        13.1058300012        1.4825235583       33.4420510603
 Au        13.1059410779        4.4375235343       33.4416906083
 Au        13.1060521922        7.3935235102       33.4413300343
     183
 i =       1, E =    -5729.7330038156
 Au         0.0004647970        0.0009375485        0.0007455145
 Au         0.0005759832        2.9559375244        0.0003847627
 Au         0.0006872070        5.9119375003        0.0000238889
 Au         2.9564647926        0.0008263106        0.0006296456
 Au         2.9565759788        2.9558262865        0.0002688938
 Au         2.9566872026        5.9118262624       -0.0000919800
 Au         5.9124647883        0.0007150726        0.0005137767
 Au         5.9125759744        2.9557150485        0.0001530249
 Au         5.9126871983        5.9117150244       -0.0002078489
 Au         8.6704647842        0.0006112856        0.0004056689
 Au         8.6705759704        2.9556112616        0.0000449172
 Au         8.6706871942        5.9116112375       -0.0003159567
 Au        11.6264647798        0.0005000477        0.0002898000
 Au        11.6265759660        2.9555000236       -0.0000709517
 Au        11.6266871898        5.9114999995       -0.0004318256
 Au         1.4786023398        1.4791370654        2.0905071259
 Au         1.4787135260        4.4341370413        2.0901463742
 Au         1.4788247498        7.3901370172        2.0897855004
 Au         4.4346023355        1.4790258274        2.0903912570
 Au         4.4347135217        4.4340258033        2.0900305053
 Au         4.4348247455        7.3900257792        2.0896696315
 Au         7.1926023314        1.4789220405        2.0902831493
 Au         7.1927135176        4.4339220164        2.0899223975
 Au         7.1928247414        7.3899219923        2.0895615237
 Au        10.1486023271        1.4788108025        2.0901672804
 Au        10.1487135132        4.4338107784        2.0898065286
 Au        10.1488247371        7.3898107543        2.0894456548
 Au        13.1046023227        1.4786995646        2.0900514115
 Au        13.1047135089        4.4336995405        2.0896906597
 Au        13.1048247327        7.3896995164        2.0893297859
 Au         0.0006286633        0.0014478443        4.1807454801
 Au         0.0007398494        2.9564478202        4.1803847284
 Au         0.0008510733        5.9124477961        4.1800238546
 Au         2.9566286589        0.0013366064        4.1806296112
 Au         2.9567398451        2.9563365823        4.1802688595
 Au         2.9568510689        5.9123365582        4.1799079857
 Au         5.9126286545        0.0012253684        4.1805137423
 Au         5.9127398407        2.9562253443        4.1801529906
 Au         5.9128510645        5.9122253202        4.1797921167
 Au         8.6706286505        0.0011215814        4.1804056346
 Au         8.6707398367        2.9561215574        4.1800448828
 Au         8.6708510605        5.9121215333        4.1796840090
 Au        11.6266286461        0.0010103435        4.1802897657
 Au        11.6267398323        2.9560103194        4.1799290139
 Au        11.6268510561        5.9120102953        4.1795681401
 Au         1.4787662061        1.4796473612        6.2705070916
 Au         1.4788773923        4.4346473371        6.2701463399
 Au         1.4789886161        7.3906473130        6.2697854660
 Au         4.4347662018        1.4795361232        6.2703912227
 Au         4.4348773880        4.4345360991        6.2700304709
 Au         4.4349886118        7.3905360750        6.2696695971
 Au         7.1927661977        1.4794323363        6.2702831150
 Au         7.1928773839        4.4344323122        6.2699223632
 Au         7.1929886077        7.3904322881        6.2695614894
 Au        10.1487661933        1.4793210983        6.2701672461
 Au        10.1488773795        4.4343210742        6.2698064943
 Au        10.1489886033        7.3903210501        6.2694456205
 Au        13.1047661890        1.4792098604        6.2700513771
 Au        13.1048773752        4.4342098363        6.2696906254
 Au        13.1049885990        7.3902098122        6.2693297516
 Au         0.0007925295        0.0019581401        8.3607454458
 Au         0.0009037157        2.9569581160        8.3603846941
 Au         0.0010149395        5.9129580919        8.3600238202
 Au         2.9567925252        0.0018469022        8.3606295769
 Au         2.9569037114        2.9568468781        8.3602688252
 Au         2.9570149352        5.9128468540        8.3599079513
 Au         5.9127925208        0.0017356642        8.3605137080
 Au         5.9129037070        2.9567356401        8.3601529562
 Au         5.9130149308        5.9127356160        8.3597920824
 Au         8.6707925168        0.0016318773        8.3604056003
 Au         8.6709037029        2.9566318532        8.3600448485
 Au         8.6710149268        5.9126318291        8.3596839747
 Au        11.6267925124        0.0015206393        8.3602897313
 Au        11.6269036986        2.9565206152        8.3599289796
 Au        11.6270149224        5.9125205911        8.3595681058
 Au         1.4789300724        1.4801576570       10.4505070573
 Au         1.4790412586        4.4351576329       10.4501463055
 Au         1.4791524824        7.3911576088       10.4497854317
 Au         4.4349300681        1.4800464190       10.4503911884
 Au         4.4350412542        4.4350463949       10.4500304366
 Au         4.4351524781        7.3910463708       10.4496695628
 Au         7.1929300640        1.4799426321       10.4502830806
 Au         7.1930412502        4.4349426080       10.4499223289
 Au         7.1931524740        7.3909425839       10.4495614551
 Au        10.1489300596        1.4798313941       10.4501672117
 Au        10.1490412458        4.4348313700       10.4498064600
 Au        10.1491524696        7.3908313459       10.4494455861
 Au        13.1049300553        1.4797201562       10.4500513428
 Au        13.1050412415        4.4347201321       10.4496905911
 Au        13.1051524653        7.3907201080       10.4493297172
  N         4.8561585576        5.9132229372       12.0318336475
  N         9.5291590306        5.9150474937       12.0336500686
  N         7.1931600594        5.9361367035       12.0397390710
  H        10.3486455581        5.9251313747       12.6437655323
  H         4.0552974943        5.9184798581       12.6685577796
  C         8.3750124923        5.9366409311       12.7223454097
  C         6.0005583185        5.9359270612       12.7754766352
  N         8.3037696474        5.9673917113       14.0650944293
  N         5.9260659673        5.9666172363       14.0867425624
  H         9.1491735196        5.9270576523       14.6383355903
  C         7.0746643309        5.9979916418       14.8422580236
  N         7.1644408325        5.9365187584       16.1077407392
  H         7.2626992395        6.7215558825       16.7437789656
 Au         7.1934151317        5.9372357920       21.0427389970
 Au         5.9137174830        7.1953245196       22.9916355751
 Au         8.6714163375        4.4374181197       22.9918641692
 Au         5.9136136700        4.4365219082       22.9919723993
 Au         8.6715201128        7.1952207311       22.9915274671
 Au         1.4795036828        1.4819439365       25.0825069371
 Au         1.4796148690        4.4369439124       25.0821461854
 Au         1.4797260928        7.3929438883       25.0817853115
 Au         4.4355036785        1.4818326985       25.0823910682
 Au         4.4356148647        4.4368326744       25.0820303164
 Au         4.4357260885        7.3928326503       25.0816694426
 Au         7.1935036744        1.4817289115       25.0822829605
 Au         7.1936148606        4.4367288875       25.0819222087
 Au         7.1937260844        7.3927288634       25.0815613349
 Au        10.1495036700        1.4816176736       25.0821670915
 Au        10.1496148562        4.4366176495       25.0818063398
 Au        10.1497260800        7.3926176254       25.0814454660
 Au        13.1055036657        1.4815064357       25.0820512226
 Au        13.1056148519        4.4365064116       25.0816904709
 Au        13.1057260757        7.3925063875       25.0813295971
 Au         0.0015300063        0.0042547154       27.1727452913
 Au         0.0016411924        2.9592546913       27.1723845396
 Au         0.0017524163        5.9152546672       27.1720236657
 Au         2.9575300019        0.0041434774       27.1726294224
 Au         2.9576411881        2.9591434533       27.1722686706
 Au         2.9577524119        5.9151434292       27.1719077968
 Au         5.9135299975        0.0040322395       27.1725135535
 Au         5.9136411837        2.9590322154       27.1721528017
 Au         5.9137524075        5.9150321913       27.1717919279
 Au         8.6715299935        0.0039284525       27.1724054457
 Au         8.6716411797        2.9589284284       27.1720446940
 Au         8.6717524035        5.9149284043       27.1716838202
 Au        11.6275299891        0.0038172146       27.1722895768
 Au        11.6276411753        2.9588171905       27.1719288251
 Au        11.6277523991        5.9148171664       27.1715679513
 Au         1.4796675491        1.4824542323       29.2625069028
 Au         1.4797787353        4.4374542082       29.2621461510
 Au         1.4798899591        7.3934541841       29.2617852772
 Au         4.4356675448        1.4823429943       29.2623910339
 Au         4.4357787310        4.4373429702       29.2620302821
 Au         4.4358899548        7.3933429461       29.2616694083
 Au         7.1936675407        1.4822392073       29.2622829261
 Au         7.1937787269        4.4372391833       29.2619221744
 Au         7.1938899507        7.3932391592       29.2615613006
 Au        10.1496675363        1.4821279694       29.2621670572
 Au        10.1497787225        4.4371279453       29.2618063055
 Au        10.1498899463        7.3931279212       29.2614454316
 Au        13.1056675320        1.4820167315       29.2620511883
 Au        13.1057787182        4.4370167074       29.2616904366
 Au        13.1058899420        7.3930166833       29.2613295627
 Au         0.0016938725        0.0047650112       31.3527452570
 Au         0.0018050587        2.9597649871       31.3523845052
 Au         0.0019162825        5.9157649630       31.3520236314
 Au         2.9576938682        0.0046537732       31.3526293881
 Au         2.9578050544        2.9596537491       31.3522686363
 Au         2.9579162782        5.9156537250       31.3519077625
 Au         5.9136938638        0.0045425353       31.3525135191
 Au         5.9138050500        2.9595425112       31.3521527674
 Au         5.9139162738        5.9155424871       31.3517918936
 Au         8.6716938598        0.0044387483       31.3524054114
 Au         8.6718050459        2.9594387242       31.3520446597
 Au         8.6719162698        5.9154387001       31.3516837858
 Au        11.6276938554        0.0043275104       31.3522895425
 Au        11.6278050416        2.9593274863       31.3519287908
 Au        11.6279162654        5.9153274622       31.3515679169
 Au         1.4798314154        1.4829645281       33.4425068684
 Au         1.4799426016        4.4379645040       33.4421461167
 Au         1.4800538254        7.3939644799       33.4417852429
 Au         4.4358314111        1.4828532901       33.4423909995
 Au         4.4359425972        4.4378532660       33.4420302478
 Au         4.4360538211        7.3938532419       33.4416693740
 Au         7.1938314070        1.4827495032       33.4422828918
 Au         7.1939425932        4.4377494791       33.4419221400
 Au         7.1940538170        7.3937494550       33.4415612662
 Au        10.1498314026        1.4826382652       33.4421670229
 Au        10.1499425888        4.4376382411       33.4418062711
 Au        10.1500538126        7.3936382170       33.4414453973
 Au        13.1058313983        1.4825270273       33.4420511540
 Au        13.1059425845        4.4375270032       33.4416904022
 Au        13.1060538083        7.3935269791       33.4413295284
     183
 i =       2, E =    -5729.7332815237
 Au         0.0004651653        0.0009384040        0.0007465256
 Au         0.0005765148        2.9559383799        0.0003853240
 Au         0.0006879020        5.9119383558        0.0000240001
 Au         2.9564651609        0.0008270027        0.0006305105
 Au         2.9565765104        2.9558269786        0.0002693089
 Au         2.9566878976        5.9118269545       -0.0000920150
 Au         5.9124651566        0.0007156014        0.0005144954
 Au         5.9125765061        2.9557155773        0.0001532938
 Au         5.9126878932        5.9117155531       -0.0002080301
 Au         8.6704651525        0.0006116620        0.0004062513
 Au         8.6705765020        2.9556116379        0.0000450497
 Au         8.6706878892        5.9116116137       -0.0003162742
 Au        11.6264651481        0.0005002607        0.0002902362
 Au        11.6265764976        2.9555002366       -0.0000709654
 Au        11.6266878848        5.9115002124       -0.0004322893
 Au         1.4786028932        1.4791381574        2.0905078389
 Au         1.4787142427        4.4341381333        2.0901466373
 Au         1.4788256299        7.3901381092        2.0897853134
 Au         4.4346028888        1.4790267561        2.0903918239
 Au         4.4347142383        4.4340267320        2.0900306222
 Au         4.4348256255        7.3900267078        2.0896692983
 Au         7.1926028848        1.4789228167        2.0902835797
 Au         7.1927142343        4.4339227926        2.0899223781
 Au         7.1928256214        7.3899227685        2.0895610542
 Au        10.1486028804        1.4788114154        2.0901675646
 Au        10.1487142299        4.4338113913        2.0898063630
 Au        10.1488256171        7.3898113671        2.0894450391
 Au        13.1046028760        1.4787000141        2.0900515495
 Au        13.1047142255        4.4336999899        2.0896903479
 Au        13.1048256127        7.3896999658        2.0893290240
 Au         0.0006292383        0.0014493363        4.1807464912
 Au         0.0007405878        2.9564493121        4.1803852896
 Au         0.0008519750        5.9124492880        4.1800239657
 Au         2.9566292340        0.0013379349        4.1806304762
 Au         2.9567405834        2.9563379108        4.1802692745
 Au         2.9568519706        5.9123378867        4.1799079506
 Au         5.9126292296        0.0012265336        4.1805144611
 Au         5.9127405791        2.9562265095        4.1801532594
 Au         5.9128519662        5.9122264854        4.1797919355
 Au         8.6706292255        0.0011225942        4.1804062169
 Au         8.6707405750        2.9561225701        4.1800450153
 Au         8.6708519622        5.9121225460        4.1796836914
 Au        11.6266292212        0.0010111929        4.1802902019
 Au        11.6267405706        2.9560111688        4.1799290002
 Au        11.6268519578        5.9120111447        4.1795676763
 Au         1.4787669662        1.4796490896        6.2705078046
 Au         1.4788783157        4.4346490655        6.2701466029
 Au         1.4789897029        7.3906490414        6.2697852790
 Au         4.4347669619        1.4795376883        6.2703917895
 Au         4.4348783114        4.4345376642        6.2700305878
 Au         4.4349896985        7.3905376401        6.2696692639
 Au         7.1927669578        1.4794337489        6.2702835454
 Au         7.1928783073        4.4344337248        6.2699223437
 Au         7.1929896945        7.3904337007        6.2695610198
 Au        10.1487669534        1.4793223476        6.2701675303
 Au        10.1488783029        4.4343223235        6.2698063286
 Au        10.1489896901        7.3903222994        6.2694450047
 Au        13.1047669491        1.4792109463        6.2700515152
 Au        13.1048782986        4.4342109222        6.2696903135
 Au        13.1049896857        7.3902108980        6.2693289896
 Au         0.0007933113        0.0019602685        8.3607464569
 Au         0.0009046608        2.9569602444        8.3603852552
 Au         0.0010160480        5.9129602202        8.3600239313
 Au         2.9567933070        0.0018488672        8.3606304418
 Au         2.9569046565        2.9568488430        8.3602692401
 Au         2.9570160436        5.9128488189        8.3599079162
 Au         5.9127933026        0.0017374658        8.3605144267
 Au         5.9129046521        2.9567374417        8.3601532250
 Au         5.9130160393        5.9127374176        8.3597919011
 Au         8.6707932985        0.0016335265        8.3604061826
 Au         8.6709046480        2.9566335023        8.3600449809
 Au         8.6710160352        5.9126334782        8.3596836570
 Au        11.6267932942        0.0015221251        8.3602901675
 Au        11.6269046437        2.9565221010        8.3599289658
 Au        11.6270160308        5.9125220769        8.3595676419
 Au         1.4789310393        1.4801600219       10.4505077702
 Au         1.4790423887        4.4351599978       10.4501465685
 Au         1.4791537759        7.3911599736       10.4497852446
 Au         4.4349310349        1.4800486206       10.4503917551
 Au         4.4350423844        4.4350485964       10.4500305534
 Au         4.4351537715        7.3910485723       10.4496692295
 Au         7.1929310308        1.4799446812       10.4502835110
 Au         7.1930423803        4.4349446570       10.4499223093
 Au         7.1931537675        7.3909446329       10.4495609854
 Au        10.1489310265        1.4798332798       10.4501674959
 Au        10.1490423759        4.4348332557       10.4498062942
 Au        10.1491537631        7.3908332316       10.4494449703
 Au        13.1049310221        1.4797218785       10.4500514808
 Au        13.1050423716        4.4347218544       10.4496902791
 Au        13.1051537587        7.3907218303       10.4493289552
  N         4.8561593577        5.9132242538       12.0318337635
  N         9.5291603209        5.9150487973       12.0336497081
  N         7.1931613511        5.9361389946       12.0397388229