#     Step Nr.          Time[fs]        Kin.[a.u.]          Temp[K]            Pot.[a.u.]        Cons Qty[a.u.]        UsedTime[s]
      2001         1000.500000         0.718420316       297.130219226     -9597.353586030     -9596.593483426      6249.310113941
      2002         1001.000000         0.718037378       296.971840414     -9597.354815698     -9596.593800533      2134.626942746
      2003         1001.500000         0.721053600       298.219314622     -9597.357665303     -9596.594105024      2290.614214818
      2004         1002.000000         0.723076350       299.055900242     -9597.359692332     -9596.594259928      2347.345600931
      2005         1002.500000         0.723387775       299.184702081     -9597.359590250     -9596.594205512      2120.386454664
      2006         1003.000000         0.721179078       298.271210657     -9597.358117816     -9596.594055088      2370.672094991
      2007         1003.500000         0.718404581       297.123711294     -9597.357042689     -9596.593945064      2031.362318992
      2008         1004.000000         0.718039531       296.972731051     -9597.357259144     -9596.593962248      2828.269496269
      2009         1004.500000         0.718205761       297.041481730     -9597.357658480     -9596.594084667      2076.630734541
      2010         1005.000000         0.716067650       296.157183965     -9597.355823596     -9596.594168608      1955.336510264
      2011         1005.500000         0.709736978       293.538892577     -9597.350170958     -9596.594133846      3029.888118017
      2012         1006.000000         0.702749506       290.648955998     -9597.341369455     -9596.593968719      2033.092605591
      2013         1006.500000         0.694489716       287.232803424     -9597.332261004     -9596.593797416      2990.791243323
      2014         1007.000000         0.688287229       284.667527849     -9597.326249036     -9596.593746089      2134.419955814
      2015         1007.500000         0.687412279       284.305658619     -9597.325494953     -9596.593851293      2022.361106172
      2016         1008.000000         0.692070610       286.232289764     -9597.330140881     -9596.594092286      1960.938179272
      2017         1008.500000         0.699902349       289.471405254     -9597.338686184     -9596.594377611      2992.633631102
      2018         1009.000000         0.708202418       292.904216418     -9597.348967352     -9596.594695886      2026.821640724
      2019         1009.500000         0.717918378       296.922623538     -9597.358499220     -9596.595026079      2359.226020536
      2020         1010.000000         0.722465741       298.803359708     -9597.364756938     -9596.595291930      2368.222399270
      2021         1010.500000         0.721393998       298.360099123     -9597.366128926     -9596.595387312      2296.654969634
      2022         1011.000000         0.716878102       296.492377741     -9597.363076822     -9596.595281835      2351.810970244
      2023         1011.500000         0.713194955       294.969070986     -9597.358279920     -9596.595038656      2496.090350658
      2024         1012.000000         0.710183038       293.723377470     -9597.355470735     -9596.594766497      2357.179283644
      2025         1012.500000         0.712313388       294.604465228     -9597.357680030     -9596.594573338      2882.707529142
      2026         1013.000000         0.718640644       297.221344197     -9597.365746180     -9596.594457629      2303.403759486
      2027         1013.500000         0.730716583       302.215811156     -9597.378082828     -9596.594408340      2938.560942641
      2028         1014.000000         0.744216651       307.799281009     -9597.391244685     -9596.594352360      2238.186757297
      2029         1014.500000         0.756212213       312.760504821     -9597.401115575     -9596.594243907      2990.341218882
      2030         1015.000000         0.758558763       313.731010335     -9597.404195174     -9596.594014762      2826.978948818
      2031         1015.500000         0.752617539       311.273789584     -9597.398827516     -9596.593655430      2029.574536463
      2032         1016.000000         0.741187179       306.546326728     -9597.385776429     -9596.593169169      2021.722473030
      2033         1016.500000         0.724825038       299.779137067     -9597.368183727     -9596.592594343      2022.116527632
      2034         1017.000000         0.707395176       292.570350610     -9597.351109191     -9596.592071260      2882.486049259
      2035         1017.500000         0.698025277       288.695070018     -9597.339887297     -9596.591706444      2190.701655563
      2036         1018.000000         0.697080376       288.304270176     -9597.338250157     -9596.591645874      2992.188991180
      2037         1018.500000         0.705158164       291.645148445     -9597.346374412     -9596.591941808      2883.509933434
      2038         1019.000000         0.720079506       297.816440556     -9597.360235525     -9596.592503249      2023.760827735
      2039         1019.500000         0.732452393       302.933721590     -9597.373204031     -9596.593057202      2182.441108806
      2040         1020.000000         0.739367678       305.793802504     -9597.379562435     -9596.593382173      2083.554410155
      2041         1020.500000         0.736612820       304.654425414     -9597.377418634     -9596.593451048      2241.529799914
      2042         1021.000000         0.727775899       300.999578520     -9597.369135438     -9596.593361117      2358.044712000
      2043         1021.500000         0.717545441       296.768381116     -9597.359464845     -9596.593235456      2360.824315161
      2044         1022.000000         0.712067597       294.502809176     -9597.353080730     -9596.593170247      2818.262821276
      2045         1022.500000         0.711363661       294.211669209     -9597.352969465     -9596.593194504      2931.879146512
      2046         1023.000000         0.717510356       296.753870255     -9597.359930445     -9596.593253745      2195.400340680
      2047         1023.500000         0.730431883       302.098062239     -9597.372846342     -9596.593385682      2243.802194163
      2048         1024.000000         0.745716932       308.419779650     -9597.388676570     -9596.593563922      2356.191950398
      2049         1024.500000         0.759054283       313.935951657     -9597.402903142     -9596.593698747      2134.823503659
      2050         1025.000000         0.768472757       317.831321879     -9597.410780887     -9596.593688210      1916.414772622
      2051         1025.500000         0.766353941       316.955004267     -9597.409061764     -9596.593449127      2328.156516835
      2052         1026.000000         0.755924898       312.641674557     -9597.397591643     -9596.592968970      2748.843272772
      2053         1026.500000         0.738742195       305.535109887     -9597.379798243     -9596.592310762      2226.072533080
      2054         1027.000000         0.722725071       298.910615222     -9597.361896273     -9596.591625664      2127.054546605
      2055         1027.500000         0.712128550       294.528018599     -9597.350780224     -9596.591138061      2935.773708636
      2056         1028.000000         0.710815554       293.984978780     -9597.350761633     -9596.591044227      2237.261533285
      2057         1028.500000         0.722047792       298.630500641     -9597.361058001     -9596.591341095      3047.601867096
      2058         1029.000000         0.737204157       304.898995452     -9597.376078197     -9596.591819281      2073.915443075
      2059         1029.500000         0.749165477       309.846057062     -9597.388430713     -9596.592265917      2129.140260329
      2060         1030.000000         0.753773627       311.751934023     -9597.392435788     -9596.592478909      3072.339450331
      2061         1030.500000         0.748232981       309.460387764     -9597.386653395     -9596.592413263      2020.005608345
      2062         1031.000000         0.737184779       304.890981056     -9597.374356592     -9596.592168826      2144.238444077
      2063         1031.500000         0.724209885       299.524717125     -9597.361617975     -9596.591936858      2130.867026474
      2064         1032.000000         0.718335908       297.095308861     -9597.354182311     -9596.591837463      2844.728527366
      2065         1032.500000         0.721237722       298.295465069     -9597.355094737     -9596.591873080      2245.816567613
      2066         1033.000000         0.728583978       301.333790791     -9597.364171184     -9596.591990815      2248.266375724
      2067         1033.500000         0.742966611       307.282278974     -9597.378578523     -9596.592148736      2307.407008015
      2068         1034.000000         0.758946987       313.891575245     -9597.393582583     -9596.592262104      2247.055099482
      2069         1034.500000         0.768664730       317.910719665     -9597.403864433     -9596.592196333      2200.825330450
      2070         1035.000000         0.770415406       318.634778614     -9597.405630530     -9596.591883646      2074.213841079
      2071         1035.500000         0.762365534       315.305445875     -9597.398061686     -9596.591298307      4087.668909350
      2072         1036.000000         0.748764409       309.680180263     -9597.383808422     -9596.590543075      1859.501108091
      2073         1036.500000         0.734530100       303.793037103     -9597.367933614     -9596.589719724      3010.497479623
      2074         1037.000000         0.723101806       299.066428684     -9597.356318312     -9596.588975547      2897.936713782
      2075         1037.500000         0.720993132       298.194305544     -9597.353682351     -9596.588461298      2141.638054366
      2076         1038.000000         0.727997183       301.091099167     -9597.361574969     -9596.588281304      2956.373219887
      2077         1038.500000         0.742359234       307.031074925     -9597.377201038     -9596.588399393      2197.752083566
      2078         1039.000000         0.759149919       313.975505493     -9597.394278404     -9596.588646120      2149.452651042
      2079         1039.500000         0.771043780       318.894666736     -9597.405751912     -9596.588818712      2206.095142245
      2080         1040.000000         0.770968934       318.863711635     -9597.406982990     -9596.588752037      2040.010276697
      2081         1040.500000         0.762112201       315.200670488     -9597.398201962     -9596.588433916      2965.529833843
      2082         1041.000000         0.749713697       310.072794471     -9597.384600620     -9596.587996088      1925.310298433
      2083         1041.500000         0.738799598       305.558851398     -9597.373844294     -9596.587683752      3023.524389872
      2084         1042.000000         0.736761532       304.715931198     -9597.372104271     -9596.587651449      2193.836252470
      2085         1042.500000         0.744674221       307.988526293     -9597.381271156     -9596.587938213      2734.418848293
      2086         1043.000000         0.761513871       314.953208061     -9597.398330742     -9596.588378436      2372.044234855
      2087         1043.500000         0.780718814       322.896147538     -9597.417020331     -9596.588793496      2372.746920527
      2088         1044.000000         0.794847297       328.739522215     -9597.430441918     -9596.589002070      3116.375502905
      2089         1044.500000         0.797488943       329.832076158     -9597.433646372     -9596.588909958      3023.878628468
      2090         1045.000000         0.789856550       326.675408054     -9597.425324184     -9596.588485149      2214.707550398
      2091         1045.500000         0.773494431       319.908227408     -9597.408072849     -9596.587805071      2798.939173307
      2092         1046.000000         0.752378839       311.175066281     -9597.387377865     -9596.586984722      2788.081836967
      2093         1046.500000         0.737113598       304.861541213     -9597.369669490     -9596.586191401      2798.898478621
      2094         1047.000000         0.728114204       301.139497422     -9597.359938876     -9596.585572898      2083.924329118
      2095         1047.500000         0.730391404       302.081320747     -9597.360047195     -9596.585161490      2206.302482946
      2096         1048.000000         0.738298686       305.351679797     -9597.368403140     -9596.584955562      2203.102222423
      2097         1048.500000         0.751055948       310.627933710     -9597.380620108     -9596.584876820      2209.095206131
      2098         1049.000000         0.760864007       314.684432093     -9597.390944327     -9596.584848825      2151.753912519
      2099         1049.500000         0.763745135       315.876032693     -9597.393985404     -9596.584752602      2200.580919772
      2100         1050.000000         0.758761622       313.814910343     -9597.386833470     -9596.584493994      3078.380043801
      2101         1050.500000         0.743821713       307.635939189     -9597.370732230     -9596.584030409      2688.360625053
      2102         1051.000000         0.724766119       299.754768696     -9597.351433550     -9596.583510585      1972.703118212
      2103         1051.500000         0.710135348       293.703653658     -9597.336675514     -9596.583167046      1970.739831154
      2104         1052.000000         0.706806864       292.327031699     -9597.332423311     -9596.583164276      2204.653636624
      2105         1052.500000         0.712472256       294.670171145     -9597.339906404     -9596.583509718      2961.512836781
      2106         1053.000000         0.726278183       300.380140999     -9597.355240669     -9596.584015881      2266.031625891
      2107         1053.500000         0.742369344       307.035256309     -9597.371808948     -9596.584442369      2266.915407436
      2108         1054.000000         0.754353530       311.991775031     -9597.383404786     -9596.584662304      2370.574430929
      2109         1054.500000         0.757206341       313.171664130     -9597.386148155     -9596.584594999      3067.005992045
      2110         1055.000000         0.749810981       310.113030213     -9597.379519005     -9596.584260802      2782.047546863
      2111         1055.500000         0.737009932       304.818666574     -9597.366154936     -9596.583699082      2387.267925415
      2112         1056.000000         0.722224481       298.703577254     -9597.351073366     -9596.583014639      2209.099504048
      2113         1056.500000         0.711847888       294.411940197     -9597.339882372     -9596.582384980      2084.153542934
      2114         1057.000000         0.709405402       293.401756409     -9597.336481868     -9596.581929595      2148.234728546
      2115         1057.500000         0.713944701       295.279157374     -9597.341598272     -9596.581670883      2900.513619753
      2116         1058.000000         0.724805385       299.771008989     -9597.352608896     -9596.581600866      2200.440568699
      2117         1058.500000         0.736046405       304.420162986     -9597.364357993     -9596.581600066      2894.817200977
      2118         1059.000000         0.743661436       307.569650353     -9597.371266928     -9596.581501768      3073.659162087
      2119         1059.500000         0.742696786       307.170682463     -9597.370154363     -9596.581182894      2101.624372892
      2120         1060.000000         0.735280826       304.103528586     -9597.362137189     -9596.580702358      2103.659078130
      2121         1060.500000         0.727466476       300.871604759     -9597.351774307     -9596.580302219      2087.767028294
      2122         1061.000000         0.719267458       297.480587081     -9597.343811489     -9596.580170102      2089.652343403
      2123         1061.500000         0.715153184       295.778971566     -9597.340563445     -9596.580275476      2033.342695694
      2124         1062.000000         0.715832683       296.060004489     -9597.341914875     -9596.580472634      3012.380739814
      2125         1062.500000         0.721688773       298.482014533     -9597.347008869     -9596.580706192      2102.289378622
      2126         1063.000000         0.728563689       301.325399448     -9597.355212111     -9596.581029953      2089.903121798
      2127         1063.500000         0.738432876       305.407179255     -9597.365439353     -9596.581500075      2031.880011473
      2128         1064.000000         0.748159452       309.429976918     -9597.375067573     -9596.582088485      2203.882385027
      2129         1064.500000         0.752111960       311.064687951     -9597.380264608     -9596.582611617      3113.344122291
      2130         1065.000000         0.748168927       309.433895890     -9597.378346465     -9596.582901243      2369.311611169
      2131         1065.500000         0.740143985       306.114874151     -9597.370143470     -9596.582940025      2950.971913330
      2132         1066.000000         0.730631374       302.180569653     -9597.359891245     -9596.582873789      2840.973496466
      2133         1066.500000         0.724024861       299.448193331     -9597.352753966     -9596.582911173      2952.824455847
      2134         1067.000000         0.722039422       298.627039008     -9597.351928098     -9596.583126439      2035.484801750
      2135         1067.500000         0.727725301       300.978651804     -9597.357277922     -9596.583533904      2040.195163581
      2136         1068.000000         0.736193762       304.481108066     -9597.365470977     -9596.583994234      3002.307402710
      2137         1068.500000         0.742743506       307.190005171     -9597.371914923     -9596.584357717      2104.439452005
      2138         1069.000000         0.745690398       308.408805164     -9597.373560013     -9596.584446061      2199.672044435
      2139         1069.500000         0.743411618       307.466328475     -9597.371237756     -9596.584316201      2207.708001596
      2140         1070.000000         0.741259674       306.576309920     -9597.368947528     -9596.584230272      4423.356182283
      2141         1070.500000         0.742807806       307.216598888     -9597.370077945     -9596.584428300      2837.111161736
      2142         1071.000000         0.746671505       308.814579757     -9597.374037091     -9596.584896638      2945.531615409
      2143         1071.500000         0.748697501       309.652507991     -9597.376776909     -9596.585330910      2006.402426596
      2144         1072.000000         0.745484325       308.323576010     -9597.374776005     -9596.585518629      1967.970639724
      2145         1072.500000         0.738566941       305.462626844     -9597.368335822     -9596.585460975      3172.817925755
      2146         1073.000000         0.731329274       302.469212701     -9597.361590021     -9596.585390084      2034.106212708
      2147         1073.500000         0.729126892       301.558333337     -9597.359293499     -9596.585503081      1982.397767794
      2148         1074.000000         0.734249176       303.676850141     -9597.363573579     -9596.585890107      2029.206642220
      2149         1074.500000         0.743051227       307.317275085     -9597.372671350     -9596.586434053      2155.980681445
      2150         1075.000000         0.751818099       310.943150649     -9597.382435176     -9596.586930629      3144.276026724
      2151         1075.500000         0.758573171       313.736969361     -9597.389010202     -9596.587268361      2969.230065176
      2152         1076.000000         0.759981428       314.319407677     -9597.390641792     -9596.587390810      2140.592958527
      2153         1076.500000         0.758059804       313.524646678     -9597.388218026     -9596.587365600      2046.767758390
      2154         1077.000000         0.753961151       311.829491810     -9597.384181065     -9596.587295348      3246.884692185
      2155         1077.500000         0.750621805       310.448377478     -9597.380837452     -9596.587246038      1983.845266956
      2156         1078.000000         0.748081773       309.397850012     -9597.379134729     -9596.587228145      2054.503865085
      2157         1078.500000         0.746100253       308.578316576     -9597.378600912     -9596.587132093      1977.041343699
      2158         1079.000000         0.746230653       308.632248308     -9597.378687575     -9596.586891559      2849.837852874
      2159         1079.500000         0.748016247       309.370749122     -9597.379869239     -9596.586572565      2319.175163018
      2160         1080.000000         0.752267622       311.129067941     -9597.382927509     -9596.586315977      2225.434454630
      2161         1080.500000         0.756796304       313.002078037     -9597.387051338     -9596.586161618      2952.750739423
      2162         1081.000000         0.758804559       313.832668494     -9597.389433361     -9596.586027920      2158.390586439
      2163         1081.500000         0.757163315       313.153869135     -9597.387111114     -9596.585726817      3023.843401289
      2164         1082.000000         0.751206226       310.690086925     -9597.379517661     -9596.585235849      3075.074018318
      2165         1082.500000         0.741915254       306.847449849     -9597.369121207     -9596.584686162      1977.695090990
      2166         1083.000000         0.732939696       303.135264428     -9597.359896743     -9596.584219514      1850.276260643
      2167         1083.500000         0.727018003       300.686121754     -9597.355160739     -9596.583931214      1984.509526145
      2168         1084.000000         0.728863973       301.449593228     -9597.356185255     -9596.583820050      2033.639922969
      2169         1084.500000         0.733976286       303.563985889     -9597.362098151     -9596.583826110      2251.790335079
      2170         1085.000000         0.742383044       307.040922304     -9597.370794589     -9596.583872994      2162.330784165
      2171         1085.500000         0.752146150       311.078828780     -9597.380085983     -9596.583913297      2263.789552461
      2172         1086.000000         0.759077207       313.945432662     -9597.388272401     -9596.583971340      2047.281672956
      2173         1086.500000         0.765831614       316.738976117     -9597.394057830     -9596.584012413      2033.132585301
      2174         1087.000000         0.767607206       317.473340317     -9597.396667856     -9596.583992599      2896.350348742
      2175         1087.500000         0.768358987       317.784268134     -9597.396534585     -9596.583874128      3073.931244115
      2176         1088.000000         0.767277777       317.337092145     -9597.395794936     -9596.583702143      2032.444638396
      2177         1088.500000         0.767327238       317.357548610     -9597.397112137     -9596.583623910      2022.413982467
      2178         1089.000000         0.772351549       319.435544837     -9597.401437846     -9596.583672425      2825.735488077
      2179         1089.500000         0.777034115       321.372199010     -9597.407601569     -9596.583700137      3010.879152454
      2180         1090.000000         0.782315604       323.556560900     -9597.413950297     -9596.583673000      2908.290961401
      2181         1090.500000         0.788321446       326.040506762     -9597.419050919     -9596.583630272      2031.553182930
      2182         1091.000000         0.789308402       326.448700171     -9597.421205306     -9596.583591635      2081.860298678
      2183         1091.500000         0.788592994       326.152816091     -9597.418376669     -9596.583489761      2201.472583988
      2184         1092.000000         0.780755968       322.911514075     -9597.409524538     -9596.583192410      1974.883847391
      2185         1092.500000         0.768428055       317.812833802     -9597.396302948     -9596.582704692      2036.758039819
      2186         1093.000000         0.755649926       312.527949208     -9597.383051608     -9596.582171028      2098.489097639
      2187         1093.500000         0.747268875       309.061644853     -9597.374753438     -9596.581804507      2028.610144600
      2188         1094.000000         0.744982527       308.116038363     -9597.373916631     -9596.581735511      3009.161563947
      2189         1094.500000         0.749795328       310.106556351     -9597.378895317     -9596.581869904      2084.089922823
      2190         1095.000000         0.755798203       312.589274878     -9597.385180353     -9596.582006433      2262.379445512
      2191         1095.500000         0.759113002       313.960236910     -9597.388391265     -9596.581997726      2199.259168335
      2192         1096.000000         0.757382841       313.244662780     -9597.386534967     -9596.581844157      3170.397409569
      2193         1096.500000         0.751210738       310.691953160     -9597.380264823     -9596.581567456      2199.172759636
      2194         1097.000000         0.745195157       308.203979361     -9597.372440216     -9596.581254816      1972.794363677
      2195         1097.500000         0.739918287       306.021527871     -9597.366847484     -9596.581022958      1973.000617539
      2196         1098.000000         0.740489647       306.257835563     -9597.366157372     -9596.581002613      2731.477912975
      2197         1098.500000         0.744881330       308.074184136     -9597.370046472     -9596.581146000      2086.610887202
      2198         1099.000000         0.750589622       310.435066877     -9597.375771370     -9596.581236600      3012.789900512
      2199         1099.500000         0.755369468       312.411955184     -9597.380945658     -9596.581173882      2901.335026131
      2200         1100.000000         0.760237170       314.425179640     -9597.385104527     -9596.581033583      2956.382792607
      2201         1100.500000         0.760775081       314.647653502     -9597.388502022     -9596.580977738      2135.676900178
      2202         1101.000000         0.762955084       315.549276938     -9597.389991852     -9596.580974479      2141.066017546
      2203         1101.500000         0.761019296       314.748657817     -9597.387406435     -9596.580876745      2136.208610455
      2204         1102.000000         0.753672857       311.710256934     -9597.379855147     -9596.580568444      2035.517660774
      2205         1102.500000         0.743872337       307.656876583     -9597.369383877     -9596.580126733      1977.858905769
      2206         1103.000000         0.734513862       303.786321074     -9597.359974393     -9596.579749894      1969.277375630
      2207         1103.500000         0.729849722       301.857287452     -9597.354779011     -9596.579549600      2954.333856194
      2208         1104.000000         0.728539071       301.315217471     -9597.354448055     -9596.579522392      2026.913102889
      2209         1104.500000         0.732564857       302.980235464     -9597.357442720     -9596.579549717      2888.375717599
      2210         1105.000000         0.735353038       304.133394642     -9597.361502141     -9596.579612302      2788.309703430
      2211         1105.500000         0.736936820       304.788428285     -9597.364454155     -9596.579684995      3942.436520815
      2212         1106.000000         0.738492493       305.431836098     -9597.364832802     -9596.579706575      2125.958243537
      2213         1106.500000         0.736603395       304.650527341     -9597.362759572     -9596.579639206      2762.209803200
      2214         1107.000000         0.734411283       303.743895480     -9597.360397806     -9596.579570385      3089.931993967
      2215         1107.500000         0.734141763       303.632425223     -9597.360729390     -9596.579659346      2868.766906444
      2216         1108.000000         0.737593723       305.060115585     -9597.365242095     -9596.579962935      2070.629942243
      2217         1108.500000         0.744127055       307.762225159     -9597.372757475     -9596.580408404      3999.961532384
      2218         1109.000000         0.752110768       311.064195244     -9597.380439462     -9596.580784215      2765.977097075
      2219         1109.500000         0.758484203       313.700173238     -9597.386185530     -9596.581037428      2088.342346665
      2220         1110.000000         0.762013315       315.159772603     -9597.389375439     -9596.581210441      2950.751630205
      2221         1110.500000         0.762616316       315.409166665     -9597.389936665     -9596.581328366      2020.663607815
      2222         1111.000000         0.760383102       314.485535482     -9597.387771756     -9596.581319693      2989.089960978
      2223         1111.500000         0.755495908       312.464249140     -9597.383350401     -9596.581110645      2075.361557375
      2224         1112.000000         0.750269122       310.302512084     -9597.378349160     -9596.580768714      2082.435561942
      2225         1112.500000         0.745805267       308.456313922     -9597.374978574     -9596.580396295      2020.834411217
      2226         1113.000000         0.744732631       308.012683965     -9597.374436816     -9596.580063357      1923.981704498
      2227         1113.500000         0.746550764       308.764642425     -9597.375916873     -9596.579730268      1911.298943714
      2228         1114.000000         0.748709829       309.657606432     -9597.377525645     -9596.579323711      1909.288115598