     116
 i =        1, E =     -3518.3335293377
 Au         0.0000000000        0.0000000000        0.0000000000
 Au         0.0000000000        4.1460000000        0.0000000000
 Au         2.0730000000        2.0730000000        0.0000000000
 Au         2.0730000000        6.2190000000        0.0000000000
 Au         4.1460000000        0.0000000000        0.0000000000
 Au         4.1460000000        4.1460000000        0.0000000000
 Au         6.2190000000        2.0730000000        0.0000000000
 Au         6.2190000000        6.2190000000        0.0000000000
 Au         0.0000000000        2.0730000000        2.0730000000
 Au         0.0000000000        6.2190000000        2.0730000000
 Au         2.0730000000        0.0000000000        2.0730000000
 Au         2.0730000000        4.1460000000        2.0730000000
 Au         4.1460000000        2.0730000000        2.0730000000
 Au         4.1460000000        6.2190000000        2.0730000000
 Au         6.2190000000        0.0000000000        2.0730000000
 Au         6.2190000000        4.1460000000        2.0730000000
 Au         0.0000000000        0.0000000000        4.1460000000
 Au         0.0000000000        4.1460000000        4.1460000000
 Au         2.0730000000        2.0730000000        4.1460000000
 Au         2.0730000000        6.2190000000        4.1460000000
 Au         4.1460000000        0.0000000000        4.1460000000
 Au         4.1460000000        4.1460000000        4.1460000000
 Au         6.2190000000        2.0730000000        4.1460000000
 Au         6.2190000000        6.2190000000        4.1460000000
 Au         0.0000000000        2.0730000000        6.2190000000
 Au         0.0000000000        6.2190000000        6.2190000000
 Au         2.0730000000        0.0000000000        6.2190000000
 Au         2.0730000000        4.1460000000        6.2190000000
 Au         4.1460000000        2.0730000000        6.2190000000
 Au         4.1460000000        6.2190000000        6.2190000000
 Au         6.2190000000        0.0000000000        6.2190000000
 Au         6.2190000000        4.1460000000        6.2190000000
 Au         0.0000000000        0.0000000000        8.2920000000
 Au         0.0000000000        4.1460000000        8.2920000000
 Au         2.0730000000        2.0730000000        8.2920000000
 Au         2.0730000000        6.2190000000        8.2920000000
 Au         4.1460000000        0.0000000000        8.2920000000
 Au         4.1460000000        4.1460000000        8.2920000000
 Au         6.2190000000        2.0730000000        8.2920000000
 Au         6.2190000000        6.2190000000        8.2920000000
 Au        -0.0000559121        2.0729798941       10.3798065257
 Au        -0.0000134684        6.2189437523       10.3580913086
 Au         2.0722319043        0.0003380714       10.3562454786
 Au         2.0722393147        4.1457829856       10.3561794418
 Au         4.1459830480        2.0729095657       10.3186190250
 Au         4.1459914381        6.2188010132       10.3786359672
 Au         6.2197866936        0.0003429614       10.3562302363
 Au         6.2197799988        4.1457782572       10.3561625516
 Au         0.0000155478       -0.0055285895       12.4412574861
 Au         0.0000164375        4.1516366889       12.4413379805
 Au         2.0024388014        2.0730738074       12.4542268360
 Au         2.0668667223        6.2189588792       12.4410625370
 Au         4.1459876493       -0.0743899835       12.4464773179
 Au         4.1459897762        4.2197002058       12.4470388841
 Au         6.2894363359        2.0730762535       12.4543799357
 Au         6.2251397127        6.2189599154       12.4410699270
  S         4.1462938476        2.0756143624       14.1017716827
  C         4.1443675717        2.0886643719       15.8692115554
  H         2.0061109092        2.0981673235       16.0179432821
  H         6.2828076835        2.0980364658       16.0272932888
  C         2.9321615528        2.0757954373       16.5622058701
  C         5.3518292116        2.0759401337       16.5635458418
  C         2.9298626616        2.0681336293       17.9605671857
  C         5.3494497956        2.0682128465       17.9615365653
  H         1.9976234750        2.0459969332       18.4972207113
  H         6.2760516518        2.0458446299       18.5068937057
  C         4.1375566881        2.0559062012       18.6543765030
  S         4.1419212668        2.0700287043       20.4227368089
 Au         0.0001130023       -0.0048315993       22.0828506780
 Au         0.0001071852        4.1507290320       22.0829314077
 Au         2.0013359883        2.0729517023       22.0698970313
 Au         2.0675199467        6.2189998241       22.0831158308
 Au         4.1461983999       -0.0752292009       22.0775819527
 Au         4.1462066489        4.2221003380       22.0782845351
 Au         6.2913898041        2.0729570337       22.0708515754
 Au         6.2190000000        6.2190000000       22.0860000000
 Au         0.0000000000        2.0730000000       24.1590000000
 Au         0.0000000000        6.2190000000       24.1590000000
 Au         2.0730000000        0.0000000000       24.1590000000
 Au         2.0730000000        4.1460000000       24.1590000000
 Au         4.1460000000        2.0730000000       24.1590000000
 Au         4.1460000000        6.2190000000       24.1590000000
 Au         6.2190000000        0.0000000000       24.1590000000
 Au         6.2190000000        4.1460000000       24.1590000000
 Au         0.0000000000        0.0000000000       26.2320000000
 Au         0.0000000000        4.1460000000       26.2320000000
 Au         2.0730000000        2.0730000000       26.2320000000
 Au         2.0730000000        6.2190000000       26.2320000000
 Au         4.1460000000        0.0000000000       26.2320000000
 Au         4.1460000000        4.1460000000       26.2320000000
 Au         6.2190000000        2.0730000000       26.2320000000
 Au         6.2190000000        6.2190000000       26.2320000000
 Au         0.0000000000        2.0730000000       28.3050000000
 Au         0.0000000000        6.2190000000       28.3050000000
 Au         2.0730000000        0.0000000000       28.3050000000
 Au         2.0730000000        4.1460000000       28.3050000000
 Au         4.1460000000        2.0730000000       28.3050000000
 Au         4.1460000000        6.2190000000       28.3050000000
 Au         6.2190000000        0.0000000000       28.3050000000
 Au         6.2190000000        4.1460000000       28.3050000000
 Au         0.0000000000        0.0000000000       30.3780000000
 Au         0.0000000000        4.1460000000       30.3780000000
 Au         2.0730000000        2.0730000000       30.3780000000
 Au         2.0730000000        6.2190000000       30.3780000000
 Au         4.1460000000        0.0000000000       30.3780000000
 Au         4.1460000000        4.1460000000       30.3780000000
 Au         6.2190000000        2.0730000000       30.3780000000
 Au         6.2190000000        6.2190000000       30.3780000000
 Au         0.0000000000        2.0730000000       32.4510000000
 Au         0.0000000000        6.2190000000       32.4510000000
 Au         2.0730000000        0.0000000000       32.4510000000
 Au         2.0730000000        4.1460000000       32.4510000000
 Au         4.1460000000        2.0730000000       32.4510000000
 Au         4.1460000000        6.2190000000       32.4510000000
 Au         6.2190000000        0.0000000000       32.4510000000
 Au         6.2190000000        4.1460000000       32.4510000000
     116
 i =        2, E =     -3518.3361526600
 Au         0.0000000000        0.0000000000        0.0000000000
 Au         0.0000000000        4.1460000000        0.0000000000
 Au         2.0730000000        2.0730000000        0.0000000000
 Au         2.0730000000        6.2190000000        0.0000000000
 Au         4.1460000000        0.0000000000        0.0000000000
 Au         4.1460000000        4.1460000000        0.0000000000
 Au         6.2190000000        2.0730000000        0.0000000000
 Au         6.2190000000        6.2190000000        0.0000000000
 Au         0.0000000000        2.0730000000        2.0730000000
 Au         0.0000000000        6.2190000000        2.0730000000
 Au         2.0730000000        0.0000000000        2.0730000000
 Au         2.0730000000        4.1460000000        2.0730000000
 Au         4.1460000000        2.0730000000        2.0730000000
 Au         4.1460000000        6.2190000000        2.0730000000
 Au         6.2190000000        0.0000000000        2.0730000000
 Au         6.2190000000        4.1460000000        2.0730000000
 Au         0.0000000000        0.0000000000        4.1460000000
 Au         0.0000000000        4.1460000000        4.1460000000
 Au         2.0730000000        2.0730000000        4.1460000000
 Au         2.0730000000        6.2190000000        4.1460000000
 Au         4.1460000000        0.0000000000        4.1460000000
 Au         4.1460000000        4.1460000000        4.1460000000
 Au         6.2190000000        2.0730000000        4.1460000000
 Au         6.2190000000        6.2190000000        4.1460000000
 Au         0.0000000000        2.0730000000        6.2190000000
 Au         0.0000000000        6.2190000000        6.2190000000
 Au         2.0730000000        0.0000000000        6.2190000000
 Au         2.0730000000        4.1460000000        6.2190000000
 Au         4.1460000000        2.0730000000        6.2190000000
 Au         4.1460000000        6.2190000000        6.2190000000
 Au         6.2190000000        0.0000000000        6.2190000000
 Au         6.2190000000        4.1460000000        6.2190000000
 Au         0.0000000000        0.0000000000        8.2920000000
 Au         0.0000000000        4.1460000000        8.2920000000
 Au         2.0730000000        2.0730000000        8.2920000000
 Au         2.0730000000        6.2190000000        8.2920000000
 Au         4.1460000000        0.0000000000        8.2920000000
 Au         4.1460000000        4.1460000000        8.2920000000
 Au         6.2190000000        2.0730000000        8.2920000000
 Au         6.2190000000        6.2190000000        8.2920000000
 Au        -0.0000022417        2.0730218313       10.3732956673
 Au         0.0000025199        6.2189562733       10.3588365478
 Au         2.0768737045        0.0067906518       10.3597220426
 Au         2.0769777484        4.1394160329       10.3595877135
 Au         4.1460259885        2.0727896332       10.3455418927
 Au         4.1459898814        6.2181528498       10.3674242270
 Au         6.2151038185        0.0068018616       10.3597555887
 Au         6.2150016946        4.1394061890       10.3596184529
 Au         0.0000223386       -0.0292304948       12.4473472098
 Au         0.0000248936        4.1754866757       12.4474915619
 Au         1.9926388921        2.0728428272       12.4714094342
 Au         2.0412583639        6.2189821303       12.4469725724
 Au         4.1459897612       -0.0869293995       12.4559161722
 Au         4.1459912836        4.2318708800       12.4574092857
 Au         6.2993243198        2.0728444501       12.4715169392
 Au         6.2507214251        6.2189846451       12.4470012652
  S         4.1458542981        2.0811945820       14.0928758009
  C         4.1440775223        2.0775643596       15.8623296881
  H         1.9983960197        2.0913012480       16.0151993890
  H         6.2889457244        2.0912108287       16.0232933985
  C         2.9400821883        2.0900707283       16.5678344451
  C         5.3449594628        2.0898816292       16.5723089521
  C         2.9373711897        2.0545429046       17.9509657989
  C         5.3415651190        2.0544008995       17.9551781633
  H         1.9928494875        2.0528365329       18.5006690929
  H         6.2833564204        2.0526923325       18.5089686690
  C         4.1380450147        2.0668482248       18.6611790794
  S         4.1398551367        2.0642901167       20.4308724553
 Au        -0.0004094910       -0.0258333929       22.0755038813
 Au        -0.0004181273        4.1715266570       22.0756442757
 Au         1.9854044808        2.0732774514       22.0479924847
 Au         2.0447068199        6.2189881883       22.0752814269
 Au         4.1456342611       -0.0924615851       22.0619507256
 Au         4.1456423464        4.2394724124       22.0635933468
 Au         6.3071190004        2.0732817212       22.0495215483
 Au         6.2190000000        6.2190000000       22.0860000000
 Au         0.0000000000        2.0730000000       24.1590000000
 Au         0.0000000000        6.2190000000       24.1590000000
 Au         2.0730000000        0.0000000000       24.1590000000
 Au         2.0730000000        4.1460000000       24.1590000000
 Au         4.1460000000        2.0730000000       24.1590000000
 Au         4.1460000000        6.2190000000       24.1590000000
 Au         6.2190000000        0.0000000000       24.1590000000
 Au         6.2190000000        4.1460000000       24.1590000000
 Au         0.0000000000        0.0000000000       26.2320000000
 Au         0.0000000000        4.1460000000       26.2320000000
 Au         2.0730000000        2.0730000000       26.2320000000
 Au         2.0730000000        6.2190000000       26.2320000000
 Au         4.1460000000        0.0000000000       26.2320000000
 Au         4.1460000000        4.1460000000       26.2320000000
 Au         6.2190000000        2.0730000000       26.2320000000
 Au         6.2190000000        6.2190000000       26.2320000000
 Au         0.0000000000        2.0730000000       28.3050000000
 Au         0.0000000000        6.2190000000       28.3050000000
 Au         2.0730000000        0.0000000000       28.3050000000
 Au         2.0730000000        4.1460000000       28.3050000000
 Au         4.1460000000        2.0730000000       28.3050000000
 Au         4.1460000000        6.2190000000       28.3050000000
 Au         6.2190000000        0.0000000000       28.3050000000
 Au         6.2190000000        4.1460000000       28.3050000000
 Au         0.0000000000        0.0000000000       30.3780000000
 Au         0.0000000000        4.1460000000       30.3780000000
 Au         2.0730000000        2.0730000000       30.3780000000
 Au         2.0730000000        6.2190000000       30.3780000000
 Au         4.1460000000        0.0000000000       30.3780000000
 Au         4.1460000000        4.1460000000       30.3780000000
 Au         6.2190000000        2.0730000000       30.3780000000
 Au         6.2190000000        6.2190000000       30.3780000000
 Au         0.0000000000        2.0730000000       32.4510000000
 Au         0.0000000000        6.2190000000       32.4510000000
 Au         2.0730000000        0.0000000000       32.4510000000
 Au         2.0730000000        4.1460000000       32.4510000000
 Au         4.1460000000        2.0730000000       32.4510000000
 Au         4.1460000000        6.2190000000       32.4510000000
 Au         6.2190000000        0.0000000000       32.4510000000
 Au         6.2190000000        4.1460000000       32.4510000000
     116
 i =        3, E =     -3518.3365643768
 Au         0.0000000000        0.0000000000        0.0000000000
 Au         0.0000000000        4.1460000000        0.0000000000
 Au         2.0730000000        2.0730000000        0.0000000000
 Au         2.0730000000        6.2190000000        0.0000000000
 Au         4.1460000000        0.0000000000        0.0000000000
 Au         4.1460000000        4.1460000000        0.0000000000
 Au         6.2190000000        2.0730000000        0.0000000000
 Au         6.2190000000        6.2190000000        0.0000000000
 Au         0.0000000000        2.0730000000        2.0730000000
 Au         0.0000000000        6.2190000000        2.0730000000
 Au         2.0730000000        0.0000000000        2.0730000000
 Au         2.0730000000        4.1460000000        2.0730000000
 Au         4.1460000000        2.0730000000        2.0730000000
 Au         4.1460000000        6.2190000000        2.0730000000
 Au         6.2190000000        0.0000000000        2.0730000000
 Au         6.2190000000        4.1460000000        2.0730000000
 Au         0.0000000000        0.0000000000        4.1460000000
 Au         0.0000000000        4.1460000000        4.1460000000
 Au         2.0730000000        2.0730000000        4.1460000000
 Au         2.0730000000        6.2190000000        4.1460000000
 Au         4.1460000000        0.0000000000        4.1460000000
 Au         4.1460000000        4.1460000000        4.1460000000
 Au         6.2190000000        2.0730000000        4.1460000000
 Au         6.2190000000        6.2190000000        4.1460000000
 Au         0.0000000000        2.0730000000        6.2190000000
 Au         0.0000000000        6.2190000000        6.2190000000
 Au         2.0730000000        0.0000000000        6.2190000000
 Au         2.0730000000        4.1460000000        6.2190000000
 Au         4.1460000000        2.0730000000        6.2190000000
 Au         4.1460000000        6.2190000000        6.2190000000
 Au         6.2190000000        0.0000000000        6.2190000000
 Au         6.2190000000        4.1460000000        6.2190000000
 Au         0.0000000000        0.0000000000        8.2920000000
 Au         0.0000000000        4.1460000000        8.2920000000
 Au         2.0730000000        2.0730000000        8.2920000000
 Au         2.0730000000        6.2190000000        8.2920000000
 Au         4.1460000000        0.0000000000        8.2920000000
 Au         4.1460000000        4.1460000000        8.2920000000
 Au         6.2190000000        2.0730000000        8.2920000000
 Au         6.2190000000        6.2190000000        8.2920000000
 Au         0.0000161432        2.0732001878       10.3784443149
 Au        -0.0000038457        6.2189772154       10.3480150063
 Au         2.0812851821        0.0126916449       10.3666506623
 Au         2.0813286191        4.1331972036       10.3666140088
 Au         4.1460160719        2.0728509209       10.3716997924
 Au         4.1459723217        6.2178994060       10.3677016925
 Au         6.2107375263        0.0127009668       10.3667251929
 Au         6.2106959777        4.1331901530       10.3666881654
 Au         0.0000148671       -0.0386038399       12.4530178093
 Au         0.0000162298        4.1848729620       12.4530775173
 Au         1.9839796194        2.0723699908       12.4861203242
 Au         2.0299063595        6.2191264855       12.4517223219
 Au         4.1460025830       -0.0974760315       12.4632045521
 Au         4.1460049446        4.2435999712       12.4652968131
 Au         6.3080985228        2.0723723076       12.4861255638
 Au         6.2620465809        6.2191279730       12.4518215922
  S         4.1458222161        2.0827166731       14.0899014733
  C         4.1435284792        2.0958730807       15.8609587162
  H         1.9942339977        2.0896146866       16.0151557998
  H         6.2923863597        2.0894908947       16.0229248501
  C         2.9405944522        2.0704855650       16.5698252472
  C         5.3444705413        2.0702938046       16.5750235327
  C         2.9373714716        2.0742271996       17.9486920441
  C         5.3417339333        2.0739982295       17.9538148052
  H         1.9894039527        2.0545833085       18.5009949354
  H         6.2881340698        2.0544341692       18.5087236407
  C         4.1385091170        2.0489968400       18.6621334350
  S         4.1385152878        2.0625352329       20.4326263212
 Au        -0.0029388453       -0.0388163495       22.0686834457
 Au        -0.0029362657        4.1844322922       22.0687711847
 Au         1.9773574823        2.0738255844       22.0323941152
 Au         2.0304610979        6.2188790578       22.0669588359
 Au         4.1422522246       -0.0986632403       22.0505866189
 Au         4.1422233874        4.2440758057       22.0525999270
 Au         6.3145688031        2.0738149522       22.0341896756
 Au         6.2190000000        6.2190000000       22.0860000000
 Au         0.0000000000        2.0730000000       24.1590000000
 Au         0.0000000000        6.2190000000       24.1590000000
 Au         2.0730000000        0.0000000000       24.1590000000
 Au         2.0730000000        4.1460000000       24.1590000000
 Au         4.1460000000        2.0730000000       24.1590000000
 Au         4.1460000000        6.2190000000       24.1590000000
 Au         6.2190000000        0.0000000000       24.1590000000
 Au         6.2190000000        4.1460000000       24.1590000000
 Au         0.0000000000        0.0000000000       26.2320000000
 Au         0.0000000000        4.1460000000       26.2320000000
 Au         2.0730000000        2.0730000000       26.2320000000
 Au         2.0730000000        6.2190000000       26.2320000000
 Au         4.1460000000        0.0000000000       26.2320000000
 Au         4.1460000000        4.1460000000       26.2320000000
 Au         6.2190000000        2.0730000000       26.2320000000
 Au         6.2190000000        6.2190000000       26.2320000000
 Au         0.0000000000        2.0730000000       28.3050000000
 Au         0.0000000000        6.2190000000       28.3050000000
 Au         2.0730000000        0.0000000000       28.3050000000
 Au         2.0730000000        4.1460000000       28.3050000000
 Au         4.1460000000        2.0730000000       28.3050000000
 Au         4.1460000000        6.2190000000       28.3050000000
 Au         6.2190000000        0.0000000000       28.3050000000
 Au         6.2190000000        4.1460000000       28.3050000000
 Au         0.0000000000        0.0000000000       30.3780000000
 Au         0.0000000000        4.1460000000       30.3780000000
 Au         2.0730000000        2.0730000000       30.3780000000
 Au         2.0730000000        6.2190000000       30.3780000000
 Au         4.1460000000        0.0000000000       30.3780000000
 Au         4.1460000000        4.1460000000       30.3780000000
 Au         6.2190000000        2.0730000000       30.3780000000
 Au         6.2190000000        6.2190000000       30.3780000000
 Au         0.0000000000        2.0730000000       32.4510000000
 Au         0.0000000000        6.2190000000       32.4510000000
 Au         2.0730000000        0.0000000000       32.4510000000
 Au         2.0730000000        4.1460000000       32.4510000000
 Au         4.1460000000        2.0730000000       32.4510000000
 Au         4.1460000000        6.2190000000       32.4510000000
 Au         6.2190000000        0.0000000000       32.4510000000
 Au         6.2190000000        4.1460000000       32.4510000000
     116
 i =        4, E =     -3518.3371381844
 Au         0.0000000000        0.0000000000        0.0000000000
 Au         0.0000000000        4.1460000000        0.0000000000
 Au         2.0730000000        2.0730000000        0.0000000000
 Au         2.0730000000        6.2190000000        0.0000000000
 Au         4.1460000000        0.0000000000        0.0000000000
 Au         4.1460000000        4.1460000000        0.0000000000
 Au         6.2190000000        2.0730000000        0.0000000000
 Au         6.2190000000        6.2190000000        0.0000000000
 Au         0.0000000000        2.0730000000        2.0730000000
 Au         0.0000000000        6.2190000000        2.0730000000
 Au         2.0730000000        0.0000000000        2.0730000000
 Au         2.0730000000        4.1460000000        2.0730000000
 Au         4.1460000000        2.0730000000        2.0730000000
 Au         4.1460000000        6.2190000000        2.0730000000
 Au         6.2190000000        0.0000000000        2.0730000000
 Au         6.2190000000        4.1460000000        2.0730000000
 Au         0.0000000000        0.0000000000        4.1460000000
 Au         0.0000000000        4.1460000000        4.1460000000
 Au         2.0730000000        2.0730000000        4.1460000000
 Au         2.0730000000        6.2190000000        4.1460000000
 Au         4.1460000000        0.0000000000        4.1460000000
 Au         4.1460000000        4.1460000000        4.1460000000
 Au         6.2190000000        2.0730000000        4.1460000000
 Au         6.2190000000        6.2190000000        4.1460000000
 Au         0.0000000000        2.0730000000        6.2190000000
 Au         0.0000000000        6.2190000000        6.2190000000
 Au         2.0730000000        0.0000000000        6.2190000000
 Au         2.0730000000        4.1460000000        6.2190000000
 Au         4.1460000000        2.0730000000        6.2190000000
 Au         4.1460000000        6.2190000000        6.2190000000
 Au         6.2190000000        0.0000000000        6.2190000000
 Au         6.2190000000        4.1460000000        6.2190000000
 Au         0.0000000000        0.0000000000        8.2920000000
 Au         0.0000000000        4.1460000000        8.2920000000
 Au         2.0730000000        2.0730000000        8.2920000000
 Au         2.0730000000        6.2190000000        8.2920000000
 Au         4.1460000000        0.0000000000        8.2920000000
 Au         4.1460000000        4.1460000000        8.2920000000
 Au         6.2190000000        2.0730000000        8.2920000000
 Au         6.2190000000        6.2190000000        8.2920000000
 Au         0.0000383097        2.0732333147       10.3862908498
 Au        -0.0000084323        6.2189552927       10.3395474487
 Au         2.0824512322        0.0146983387       10.3706104657
 Au         2.0825332456        4.1310409552       10.3707456161
 Au         4.1459940385        2.0728895648       10.3789731349
 Au         4.1459702791        6.2176736341       10.3729511056
 Au         6.2096113915        0.0146919475       10.3706909625
 Au         6.2095306781        4.1310498469       10.3708263989
 Au         0.0000143197       -0.0357519204       12.4553457151
 Au         0.0000156383        4.1819270904       12.4553230025
 Au         1.9788101772        2.0719573202       12.4939286077
 Au         2.0317282982        6.2193123530       12.4529875965
 Au         4.1460191384       -0.1035581182       12.4672136169
 Au         4.1460221657        4.2504922924       12.4698819570
 Au         6.3133430955        2.0719606065       12.4938668864
 Au         6.2602036464        6.2193140839       12.4531642291
  S         4.1459253133        2.0849676349       14.0924980148
  C         4.1431462188        2.0865572954       15.8639501165
  H         1.9931827298        2.0873007925       16.0157241309
  H         6.2935013259        2.0871350626       16.0238653083
  C         2.9373463253        2.0783143479       16.5690298250
  C         5.3471275730        2.0782428329       16.5733679171
  C         2.9346973629        2.0663984564       17.9505014125
  C         5.3448371768        2.0662668281       17.9548261705
  H         1.9883933420        2.0569939771       18.4999266255
  H         6.2890732020        2.0568117838       18.5079004997
  C         4.1387498832        2.0583407212       18.6595294453
  S         4.1385061332        2.0602341301       20.4304361972
 Au        -0.0053631401       -0.0377814702       22.0660395926
 Au        -0.0053741994        4.1835866318       22.0660295483
 Au         1.9740427641        2.0742163205       22.0295265319
 Au         2.0311532953        6.2186523400       22.0631238030
 Au         4.1387775306       -0.0983428591       22.0484229003
 Au         4.1387645663        4.2427507918       22.0508309698
 Au         6.3164938607        2.0741984859       22.0312452767
 Au         6.2190000000        6.2190000000       22.0860000000
 Au         0.0000000000        2.0730000000       24.1590000000
 Au         0.0000000000        6.2190000000       24.1590000000
 Au         2.0730000000        0.0000000000       24.1590000000
 Au         2.0730000000        4.1460000000       24.1590000000
 Au         4.1460000000        2.0730000000       24.1590000000
 Au         4.1460000000        6.2190000000       24.1590000000
 Au         6.2190000000        0.0000000000       24.1590000000
 Au         6.2190000000        4.1460000000       24.1590000000
 Au         0.0000000000        0.0000000000       26.2320000000
 Au         0.0000000000        4.1460000000       26.2320000000
 Au         2.0730000000        2.0730000000       26.2320000000
 Au         2.0730000000        6.2190000000       26.2320000000
 Au         4.1460000000        0.0000000000       26.2320000000
 Au         4.1460000000        4.1460000000       26.2320000000
 Au         6.2190000000        2.0730000000       26.2320000000
 Au         6.2190000000        6.2190000000       26.2320000000
 Au         0.0000000000        2.0730000000       28.3050000000
 Au         0.0000000000        6.2190000000       28.3050000000
 Au         2.0730000000        0.0000000000       28.3050000000
 Au         2.0730000000        4.1460000000       28.3050000000
 Au         4.1460000000        2.0730000000       28.3050000000
 Au         4.1460000000        6.2190000000       28.3050000000
 Au         6.2190000000        0.0000000000       28.3050000000
 Au         6.2190000000        4.1460000000       28.3050000000
 Au         0.0000000000        0.0000000000       30.3780000000
 Au         0.0000000000        4.1460000000       30.3780000000
 Au         2.0730000000        2.0730000000       30.3780000000
 Au         2.0730000000        6.2190000000       30.3780000000
 Au         4.1460000000        0.0000000000       30.3780000000
 Au         4.1460000000        4.1460000000       30.3780000000
 Au         6.2190000000        2.0730000000       30.3780000000
 Au         6.2190000000        6.2190000000       30.3780000000
 Au         0.0000000000        2.0730000000       32.4510000000
 Au         0.0000000000        6.2190000000       32.4510000000