#     Step Nr.          Time[fs]        Kin.[a.u.]          Temp[K]            Pot.[a.u.]        Cons Qty[a.u.]        UsedTime[s]
      2001         1000.500000         0.717492541       296.746502096     -9597.621375320     -9596.903882779      1722.793292407
      2002         1001.000000         0.718657187       297.228186047     -9597.622655807     -9596.903998620       843.513231120
      2003         1001.500000         0.721319545       298.329306282     -9597.625488048     -9596.904168503       621.783056612
      2004         1002.000000         0.723202110       299.107913120     -9597.627451176     -9596.904249066       621.797195932
      2005         1002.500000         0.723148235       299.085631025     -9597.627333672     -9596.904185437       616.094856410
      2006         1003.000000         0.721833749       298.541975213     -9597.625884369     -9596.904050620       602.541434644
      2007         1003.500000         0.720872245       298.144308087     -9597.624862149     -9596.903989904       628.146000840
      2008         1004.000000         0.721061239       298.222473827     -9597.625117716     -9596.904056477       851.195204040
      2009         1004.500000         0.721326556       298.332205860     -9597.625550498     -9596.904223943       967.471354784
      2010         1005.000000         0.719409922       297.539508461     -9597.623749814     -9596.904339892       636.905818359
      2011         1005.500000         0.713770629       295.207163024     -9597.618099569     -9596.904328940       740.719151692
      2012         1006.000000         0.705049355       291.600146431     -9597.609204542     -9596.904155187       805.549235425
      2013         1006.500000         0.695946269       287.835216984     -9597.599879374     -9596.903933105       810.940170401
      2014         1007.000000         0.689741784       285.269114654     -9597.593542486     -9596.903800702       610.622322271
      2015         1007.500000         0.688588892       284.792291869     -9597.592380927     -9596.903792035       604.101479908
      2016         1008.000000         0.692699695       286.492471698     -9597.596586732     -9596.903887038       600.958457341
      2017         1008.500000         0.700712484       289.806467605     -9597.604723650     -9596.904011166       857.581404951
      2018         1009.000000         0.710479921       293.846164729     -9597.614641064     -9596.904161144       837.002977750
      2019         1009.500000         0.719507374       297.579813541     -9597.623829939     -9596.904322565       567.639311373
      2020         1010.000000         0.725312334       299.980677123     -9597.629747322     -9596.904434987       558.320546865
      2021         1010.500000         0.726324525       300.399307267     -9597.630734676     -9596.904410151       583.772525063
      2022         1011.000000         0.722981212       299.016552435     -9597.627214864     -9596.904233652       605.540851187
      2023         1011.500000         0.717975744       296.946349243     -9597.621955514     -9596.903979771       604.248750577
      2024         1012.000000         0.715139366       295.773256592     -9597.618911034     -9596.903771668       607.963957824
      2025         1012.500000         0.717513607       296.755215041     -9597.621240341     -9596.903726734       635.716708627
      2026         1013.000000         0.725847278       300.201923396     -9597.629688269     -9596.903840991       894.844290244
      2027         1013.500000         0.738349747       305.372798077     -9597.642410794     -9596.904061047       923.378246144
      2028         1014.000000         0.751496568       310.810169301     -9597.655813470     -9596.904316902       620.599935093
      2029         1014.500000         0.761272073       314.853203349     -9597.665799461     -9596.904527388       797.783880622
      2030         1015.000000         0.764429061       316.158896646     -9597.669066218     -9596.904637157       922.034044374
      2031         1015.500000         0.759430102       314.091385751     -9597.664039099     -9596.904608997       810.071114148
      2032         1016.000000         0.746910812       308.913554449     -9597.651353044     -9596.904442232       837.066714196
      2033         1016.500000         0.729752338       301.817010504     -9597.633890653     -9596.904138315       658.860322223
      2034         1017.000000         0.712659073       294.747436775     -9597.616459696     -9596.903800622       794.385942241
      2035         1017.500000         0.700932098       289.897297142     -9597.604472514     -9596.903540416       793.824738768
      2036         1018.000000         0.698483921       288.884760143     -9597.601975291     -9596.903491369       851.359191444
      2037         1018.500000         0.705799814       291.910527358     -9597.609526984     -9596.903727170       829.681016060
      2038         1019.000000         0.719167305       297.439165183     -9597.623327838     -9596.904160533       800.005232813
      2039         1019.500000         0.732258193       302.853402732     -9597.636799275     -9596.904541082       584.943920818
      2040         1020.000000         0.739414984       305.813367869     -9597.644094462     -9596.904679478       612.345339701
      2041         1020.500000         0.738426226       305.404428910     -9597.642964843     -9596.904538617       607.952594669
      2042         1021.000000         0.731107526       302.377500580     -9597.635360758     -9596.904253232       840.511537039
      2043         1021.500000         0.721803722       298.529556254     -9597.625749545     -9596.903945823       818.021641820
      2044         1022.000000         0.715109532       295.760917521     -9597.618867346     -9596.903757814       602.459808554
      2045         1022.500000         0.714141027       295.360355396     -9597.617839460     -9596.903698433       640.140185845
      2046         1023.000000         0.719945090       297.760847765     -9597.623690970     -9596.903745880       815.020625462
      2047         1023.500000         0.731635666       302.595932793     -9597.635548822     -9596.903913156       794.245993877
      2048         1024.000000         0.746570944       308.772989038     -9597.650747114     -9596.904176170       618.298643715
      2049         1024.500000         0.760651006       314.596337311     -9597.665123413     -9596.904472407       610.638300616
      2050         1025.000000         0.769337330       318.188899015     -9597.674031585     -9596.904694256       658.195905924
      2051         1025.500000         0.769350828       318.194481838     -9597.674096341     -9596.904745513       649.800012387
      2052         1026.000000         0.760184479       314.403387129     -9597.664760285     -9596.904575806       856.610225299
      2053         1026.500000         0.744676947       307.989653690     -9597.648897150     -9596.904220204       831.810767303
      2054         1027.000000         0.728364072       301.242839867     -9597.632188200     -9596.903824129       810.998257362
      2055         1027.500000         0.717494873       296.747466969     -9597.621040455     -9596.903545581       679.238554645
      2056         1028.000000         0.716171805       296.200261260     -9597.619715592     -9596.903543787       623.386799942
      2057         1028.500000         0.724150411       299.500119438     -9597.628005150     -9596.903854738       604.656469061
      2058         1029.000000         0.736898329       304.772508679     -9597.641184294     -9596.904285965       746.069707196
      2059         1029.500000         0.747982251       309.356688909     -9597.652621095     -9596.904638844       860.104496636
      2060         1030.000000         0.752274136       311.131762283     -9597.657002689     -9596.904728553       589.069214966
      2061         1030.500000         0.748251084       309.467875074     -9597.652805597     -9596.904554513       864.065742362
      2062         1031.000000         0.738422795       305.403010035     -9597.642632020     -9596.904209224       864.420641276
      2063         1031.500000         0.727818025       301.017001539     -9597.631690550     -9596.903872524       623.159934079
      2064         1032.000000         0.721438170       298.378368313     -9597.625127779     -9596.903689609       860.456058399
      2065         1032.500000         0.722192152       298.690206393     -9597.625885042     -9596.903692890       854.429663342
      2066         1033.000000         0.730155171       301.983617477     -9597.634011345     -9596.903856174       597.877417523
      2067         1033.500000         0.742794031       307.210902095     -9597.646931554     -9596.904137523       622.770813618
      2068         1034.000000         0.755714414       312.554620781     -9597.660177089     -9596.904462675       639.667150822
      2069         1034.500000         0.764108231       316.026204949     -9597.668774441     -9596.904666210       627.666988444
      2070         1035.000000         0.764763302       316.297134853     -9597.669435022     -9596.904671720       623.021558966
      2071         1035.500000         0.757513285       313.298612634     -9597.661999940     -9596.904486655       786.581284203
      2072         1036.000000         0.745141214       308.181669165     -9597.649347207     -9596.904205994       862.790646062
      2073         1036.500000         0.732081999       302.780530963     -9597.635993074     -9596.903911075       692.693261532
      2074         1037.000000         0.722994284       299.021958767     -9597.626666182     -9596.903671898       671.441466298
      2075         1037.500000         0.721545457       298.422740997     -9597.625115308     -9596.903569851       794.764874183
      2076         1038.000000         0.729024831       301.516122353     -9597.632743465     -9596.903718633       863.328100821
      2077         1038.500000         0.743176295       307.369001906     -9597.647258271     -9596.904081975       602.995830355
      2078         1039.000000         0.758577304       313.738678683     -9597.663089253     -9596.904511949       596.490987065
      2079         1039.500000         0.768988321       318.044553262     -9597.673771706     -9596.904783385       606.660929180
      2080         1040.000000         0.770467654       318.656387738     -9597.675224113     -9596.904756460       879.275168639
      2081         1040.500000         0.763537170       315.790021125     -9597.667977049     -9596.904439879       911.971218216
      2082         1041.000000         0.753072408       311.461918286     -9597.657053833     -9596.903981425       843.052745396
      2083         1041.500000         0.745654402       308.393917806     -9597.649319619     -9596.903665217       603.823008473
      2084         1042.000000         0.745979168       308.528237203     -9597.649605249     -9596.903626081       624.679028898
      2085         1042.500000         0.754749177       312.155410102     -9597.658583223     -9596.903834046       606.780587333
      2086         1043.000000         0.768941781       318.025304824     -9597.673102718     -9596.904160937       805.824700921
      2087         1043.500000         0.783567405       324.074291388     -9597.688036928     -9596.904469523       818.751726363
      2088         1044.000000         0.793732810       328.278583736     -9597.698394907     -9596.904662097       832.828843030
      2089         1044.500000         0.796237240       329.314386550     -9597.700929453     -9596.904692213       797.137447621
      2090         1045.000000         0.790380880       326.892264761     -9597.694944057     -9596.904563177       813.541920323
      2091         1045.500000         0.777961050       321.755568496     -9597.682298558     -9596.904337508       903.601310282
      2092         1046.000000         0.762533997       315.375120430     -9597.666600166     -9596.904066169       882.545239302
      2093         1046.500000         0.748201190       309.447239330     -9597.652055582     -9596.903854392       899.250239090
      2094         1047.000000         0.738368448       305.380532655     -9597.642106305     -9596.903737857       880.529345852
      2095         1047.500000         0.734897999       303.945195468     -9597.638646356     -9596.903748357       831.152916144
      2096         1048.000000         0.737771879       305.133798599     -9597.641648640     -9596.903876762       656.997433743
      2097         1048.500000         0.745022782       308.132687335     -9597.649162740     -9596.904139958       663.965866297
      2098         1049.000000         0.752871734       311.378921814     -9597.657332073     -9596.904460338       621.731561846
      2099         1049.500000         0.756668358       312.949160742     -9597.661366249     -9596.904697892       605.261363691
      2100         1050.000000         0.753056400       311.455297541     -9597.657763217     -9596.904706817       905.038861927
      2101         1050.500000         0.742306105       307.009101431     -9597.646743111     -9596.904437006      1016.196145214
      2102         1051.000000         0.728730793       301.394511584     -9597.632764490     -9596.904033697       590.437427174
      2103         1051.500000         0.718359549       297.105086747     -9597.622124849     -9596.903765300       809.936337497
      2104         1052.000000         0.715412337       295.886154294     -9597.619169932     -9596.903757595       929.655129853
      2105         1052.500000         0.720095764       297.823164860     -9597.624072322     -9596.903976558       813.478924457
      2106         1053.000000         0.729123053       301.556745848     -9597.633389348     -9596.904266295       791.295633958
      2107         1053.500000         0.738133194       305.283234373     -9597.642591148     -9596.904457954       847.192674166
      2108         1054.000000         0.743850271       307.647750309     -9597.648372211     -9596.904521941       815.937013967
      2109         1054.500000         0.744791367       308.036976713     -9597.649312802     -9596.904521435       619.406729133
      2110         1055.000000         0.741098706       306.509735187     -9597.645518819     -9596.904420114       622.727134504
      2111         1055.500000         0.734314242       303.703760561     -9597.638555795     -9596.904241553       841.781649200
      2112         1056.000000         0.726909501       300.641246543     -9597.630974059     -9596.904064558       784.868232853
      2113         1056.500000         0.721196768       298.278527039     -9597.625188140     -9596.903991372       836.425023769
      2114         1057.000000         0.718306544       297.083164425     -9597.622307502     -9596.904000958       620.493689513
      2115         1057.500000         0.718213150       297.044537746     -9597.622250604     -9596.904037454       625.222708605
      2116         1058.000000         0.720415981       297.955602859     -9597.624493423     -9596.904077442       646.681360684
      2117         1058.500000         0.724034081       299.452006482     -9597.628234409     -9596.904200328       892.643065460
      2118         1059.000000         0.727397448       300.843055859     -9597.631756411     -9596.904358962       935.810846531
      2119         1059.500000         0.728579932       301.332117138     -9597.632989449     -9596.904409517       615.103087603
      2120         1060.000000         0.727051514       300.699981607     -9597.631338130     -9596.904286616       625.667217265
      2121         1060.500000         0.724441366       299.620454692     -9597.628561630     -9596.904120264       620.697118968
      2122         1061.000000         0.723122959       299.075177089     -9597.627181855     -9596.904058896       623.559880119
      2123         1061.500000         0.724248808       299.540814984     -9597.628361147     -9596.904112339       804.376395465
      2124         1062.000000         0.727384062       300.837519440     -9597.631562518     -9596.904178456       867.279321325
      2125         1062.500000         0.731539613       302.556206375     -9597.635756818     -9596.904217206       605.236523526
      2126         1063.000000         0.736029391       304.413125916     -9597.640267728     -9596.904238337       588.939374008
      2127         1063.500000         0.740363678       306.205736506     -9597.644649729     -9596.904286051       636.385897186
      2128         1064.000000         0.743696165       307.584014037     -9597.648066711     -9596.904370545       615.352391446
      2129         1064.500000         0.744930127       308.094366082     -9597.649329787     -9596.904399661       622.759994555
      2130         1065.000000         0.743773698       307.616080561     -9597.648088563     -9596.904314866       869.658932217
      2131         1065.500000         0.741483356       306.668822060     -9597.645643537     -9596.904160181       839.307587471
      2132         1066.000000         0.740023067       306.064863772     -9597.644123169     -9596.904100102       815.798142816
      2133         1066.500000         0.740310625       306.183794381     -9597.644485423     -9596.904174798       829.904637116
      2134         1067.000000         0.741445248       306.653061104     -9597.645748621     -9596.904303373       780.879652206
      2135         1067.500000         0.741653608       306.739236120     -9597.646032418     -9596.904378810       780.260178080
      2136         1068.000000         0.739866541       306.000126457     -9597.644215781     -9596.904349239       900.845136122
      2137         1068.500000         0.736491651       304.604311372     -9597.640746017     -9596.904254366       649.412446970
      2138         1069.000000         0.733058568       303.184428424     -9597.637191672     -9596.904133105       847.690574027
      2139         1069.500000         0.731425938       302.509192025     -9597.635467508     -9596.904041570       789.271531702
      2140         1070.000000         0.732945218       303.137548432     -9597.636982802     -9596.904037583       824.404930056
      2141         1070.500000         0.737464722       305.006762179     -9597.641637281     -9596.904172559       619.892927456
      2142         1071.000000         0.742882067       307.247312362     -9597.647275242     -9596.904393175       627.341750993
      2143         1071.500000         0.746279122       308.652294774     -9597.650777599     -9596.904498477       621.956604153
      2144         1072.000000         0.745951998       308.517000086     -9597.650388463     -9596.904436465       795.991883415
      2145         1072.500000         0.742466793       307.075560176     -9597.646744387     -9596.904277594       603.070999129
      2146         1073.000000         0.737901489       305.187403986     -9597.642054875     -9596.904153385       621.150164355
      2147         1073.500000         0.734231832       303.669676886     -9597.638329644     -9596.904097812       614.024072435
      2148         1074.000000         0.732476366       302.943636561     -9597.636551357     -9596.904074991       591.154717398
      2149         1074.500000         0.732971502       303.148418973     -9597.637051978     -9596.904080477       622.039613612
      2150         1075.000000         0.735719391       304.284913876     -9597.639834551     -9596.904115159       802.112466628
      2151         1075.500000         0.740156141       306.119901715     -9597.644368622     -9596.904212481       928.456481692
      2152         1076.000000         0.744937885       308.097574642     -9597.649272544     -9596.904334659       607.501112030
      2153         1076.500000         0.748389345       309.525058268     -9597.652822126     -9596.904432780       740.354983718
      2154         1077.000000         0.749345733       309.920609039     -9597.653790365     -9596.904444632       843.899403185
      2155         1077.500000         0.747699317       309.239670720     -9597.652099487     -9596.904400170       831.997196387
      2156         1078.000000         0.744314963       307.839941713     -9597.648653789     -9596.904338825       813.777478540
      2157         1078.500000         0.740516520       306.268949975     -9597.644786840     -9596.904270320       853.835085967
      2158         1079.000000         0.737525855       305.032046248     -9597.641758499     -9596.904232644       908.468094906
      2159         1079.500000         0.735975776       304.390951566     -9597.640225249     -9596.904249473       902.465104696
      2160         1080.000000         0.735573092       304.224406294     -9597.639901371     -9596.904328279       612.978062187
      2161         1080.500000         0.735221742       304.079091756     -9597.639616833     -9596.904395092       618.885577364
      2162         1081.000000         0.733820947       303.499739396     -9597.638210655     -9596.904389708       861.026666022
      2163         1081.500000         0.731293589       302.454453988     -9597.635588935     -9596.904295346       850.003028003
      2164         1082.000000         0.728747157       301.401279322     -9597.632937837     -9596.904190680       598.735323948
      2165         1082.500000         0.727430106       300.856562728     -9597.631586749     -9596.904156643       601.565722488
      2166         1083.000000         0.727654165       300.949230649     -9597.631841656     -9596.904187491       613.027829742
      2167         1083.500000         0.728864721       301.449902424     -9597.633078449     -9596.904213728       931.759860687
      2168         1084.000000         0.730617910       302.175000834     -9597.634790771     -9596.904172862       838.766640397
      2169         1084.500000         0.733186896       303.237503335     -9597.637318204     -9596.904131308       641.225761987
      2170         1085.000000         0.737057408       304.838302058     -9597.641201682     -9596.904144274       619.745222646
      2171         1085.500000         0.742020259       306.890878901     -9597.646242178     -9596.904221919       625.898484748
      2172         1086.000000         0.747013394       308.955981121     -9597.651325233     -9596.904311839       604.959125693
      2173         1086.500000         0.750877043       310.553940795     -9597.655229623     -9596.904352580       604.888395019
      2174         1087.000000         0.753237274       311.530104565     -9597.657553465     -9596.904316191       801.186778139
      2175         1087.500000         0.754749209       312.155423330     -9597.659013150     -9596.904263941       818.164842872
      2176         1088.000000         0.756521808       312.888549610     -9597.660762221     -9596.904240413       835.660070478
      2177         1088.500000         0.759249945       314.016874916     -9597.663509293     -9596.904259349       860.191062369
      2178         1089.000000         0.762921396       315.535344070     -9597.667230809     -9596.904309413       860.672940094
      2179         1089.500000         0.767175003       317.294586221     -9597.671515275     -9596.904340271       915.217503023
      2180         1090.000000         0.771420602       319.050516223     -9597.675837185     -9596.904416582       591.903202614
      2181         1090.500000         0.774556466       320.347472653     -9597.679057564     -9596.904501098       584.915345364
      2182         1091.000000         0.775131576       320.585331267     -9597.679687184     -9596.904555609       614.009927137
      2183         1091.500000         0.772061458       319.315566747     -9597.676619581     -9596.904558122       590.951130719
      2184         1092.000000         0.765228423       316.489503329     -9597.669714004     -9596.904485581       606.024790094
      2185         1092.500000         0.755848583       312.610111378     -9597.660165052     -9596.904316470       605.524643007
      2186         1093.000000         0.746607886       308.788267425     -9597.650677915     -9596.904070029       647.491958397
      2187         1093.500000         0.740883876       306.420884196     -9597.644778728     -9596.903894852       629.141864473
      2188         1094.000000         0.740797558       306.385184134     -9597.644756882     -9596.903959324       619.415640399
      2189         1094.500000         0.745481816       308.322538339     -9597.649694726     -9596.904212910       622.336544574
      2190         1095.000000         0.751446175       310.789327382     -9597.655926743     -9596.904480568       628.491942945
      2191         1095.500000         0.755015764       312.265667425     -9597.659616126     -9596.904600362       627.054110799
      2192         1096.000000         0.754698236       312.134341576     -9597.659225043     -9596.904526807       610.558228625
      2193         1096.500000         0.751608244       310.856356935     -9597.655978998     -9596.904370755       609.121481068
      2194         1097.000000         0.748091749       309.401975974     -9597.652350670     -9596.904258921       618.739861139
      2195         1097.500000         0.745979870       308.528527471     -9597.650229434     -9596.904249564       782.255258103
      2196         1098.000000         0.745618341       308.379003544     -9597.649949573     -9596.904331232       814.975309226
      2197         1098.500000         0.746028274       308.548546776     -9597.650457645     -9596.904429371       856.718271668
      2198         1099.000000         0.746055241       308.559700167     -9597.650496436     -9596.904441195       838.341374870
      2199         1099.500000         0.745695513       308.410920708     -9597.650037088     -9596.904341575       849.820492853
      2200         1100.000000         0.746108481       308.581719642     -9597.650401799     -9596.904293318       674.001391236
      2201         1100.500000         0.748012563       309.369225653     -9597.652352982     -9596.904340418       872.897054863
      2202         1101.000000         0.750496958       310.396742098     -9597.654956199     -9596.904459242       865.771897762
      2203         1101.500000         0.751721456       310.903180206     -9597.656248104     -9596.904526648       623.108352921
      2204         1102.000000         0.750430821       310.369388815     -9597.654930723     -9596.904499901       649.034460844
      2205         1102.500000         0.746852627       308.889489418     -9597.651245822     -9596.904393196       626.478943320
      2206         1103.000000         0.742504086       307.090983847     -9597.646768196     -9596.904264110       619.571981599
      2207         1103.500000         0.738979278       305.633164842     -9597.643218657     -9596.904239379       847.365528477
      2208         1104.000000         0.736702159       304.691375032     -9597.641015513     -9596.904313354       996.221184160
      2209         1104.500000         0.735041878       304.004702373     -9597.639393866     -9596.904351988       639.655096015
      2210         1105.000000         0.733691108       303.446039514     -9597.637984273     -9596.904293165      1214.959584235
      2211         1105.500000         0.733554100       303.389374704     -9597.637752058     -9596.904197958       861.062855126
      2212         1106.000000         0.736017287       304.408119967     -9597.640184217     -9596.904166930       837.363428491
      2213         1106.500000         0.741452509       306.656064330     -9597.645712767     -9596.904260258       922.316792567
      2214         1107.000000         0.748490916       309.567066812     -9597.652921522     -9596.904430606       800.021939974
      2215         1107.500000         0.754559847       312.077105336     -9597.659167830     -9596.904607984       808.051140578
      2216         1108.000000         0.757158905       313.152045381     -9597.661846357     -9596.904687451      1179.210138181
      2217         1108.500000         0.755342391       312.400756384     -9597.659924471     -9596.904582080       828.235269015
      2218         1109.000000         0.750815112       310.528326775     -9597.655121735     -9596.904306624       845.222589317
      2219         1109.500000         0.747416787       309.122819700     -9597.651487828     -9596.904071041       670.527997762
      2220         1110.000000         0.748343280       309.506006264     -9597.652442367     -9596.904099087       611.774243044
      2221         1110.500000         0.753175025       311.504359504     -9597.657558084     -9596.904383058       610.111634806
      2222         1111.000000         0.758077195       313.531839420     -9597.662718566     -9596.904641370       866.687025402
      2223         1111.500000         0.759231326       314.009174426     -9597.663916475     -9596.904685148       860.223553854
      2224         1112.000000         0.755916422       312.638168932     -9597.660414104     -9596.904497682       603.281912880
      2225         1112.500000         0.750507153       310.400958560     -9597.654795688     -9596.904288536       719.450786188
      2226         1113.000000         0.745939941       308.512013569     -9597.650174816     -9596.904234874       690.090839021
      2227         1113.500000         0.743331534       307.433206844     -9597.647653807     -9596.904322273       831.731158566
      2228         1114.000000         0.742019424       306.890533329     -9597.646392495     -9596.904373072       912.847095816