ATOMS
H             0.00000000      0.00000000     -0.00998254            -0.00070074      0.70710643     -0.00001926
H             0.00000000      0.00000000      0.73998166             0.00070074     -0.70710643      0.00001926
