ATOMS
H             0.00000000      0.00000000     -0.00998254             0.00012092     -0.00001914     -0.70710677
H             0.00000000      0.00000000      0.73998166            -0.00012092      0.00001914      0.70710677
