ATOMS
H             0.00000000      0.00000000     -0.00998254             0.00003013     -0.70035830     -0.09745894
H             0.00000000      0.00000000      0.73998166             0.00003013     -0.70035830     -0.09745894
