ATOMS
H             0.00000000      0.00000000     -0.00998254             0.70710642      0.00070074      0.00012090
H             0.00000000      0.00000000      0.73998166            -0.70710642     -0.00070074     -0.00012090
