 DBCSR| CPU Multiplication driver                                           XSMM
 DBCSR| Multrec recursion limit                                              512
 DBCSR| Multiplication stack size                                           1000
 DBCSR| Maximum elements for images                                    UNLIMITED
 DBCSR| Multiplicative factor virtual images                                   1
 DBCSR| Use multiplication densification                                       T
 DBCSR| Multiplication size stacks                                             3
 DBCSR| Use memory pool for CPU allocation                                     F
 DBCSR| Number of 3D layers                                               SINGLE
 DBCSR| Use MPI memory allocation                                              F
 DBCSR| Use RMA algorithm                                                      F
 DBCSR| Use Communication thread                                               T
 DBCSR| Communication thread load                                             87
 DBCSR| MPI: My node id                                                        0
 DBCSR| MPI: Number of nodes                                                  64
 DBCSR| OMP: Current number of threads                                         1
 DBCSR| OMP: Max number of threads                                             1
 DBCSR| Split modifier for TAS multiplication algorithm                  1.0E+00


  **** **** ******  **  PROGRAM STARTED AT               2023-08-29 17:36:33.941
 ***** ** ***  *** **   PROGRAM STARTED ON                             nid001314
 **    ****   ******    PROGRAM STARTED BY                                cahart
 ***** **    ** ** **   PROGRAM PROCESS ID                                 27004
  **** **  *******  **  PROGRAM STARTED IN /mnt/lustre/a2fs-work2/work/e05/e05/c
                                           ahart/postdoc/transport/au-bdt/benchm
                                           arking/archer/profiling/arm_forge/NEn
                                           ergReal-64-memory_OrderF-F/atoms-246/
                                           steps-5/kpoints-1-1-20_hlb-auto_cores
                                           -64_transm-1

 CP2K| version string:                 CP2K version 2022.1 (Development Version)
 CP2K| source code revision number:                                  git:b6b55db
 CP2K| cp2kflags: omp libint fftw3 libxc elpa parallel mpi3 scalapack xsmm mkl  
 CP2K| is freely available from                            https://www.cp2k.org/
 CP2K| Program compiled at                          Wed 26 Jul 19:44:35 BST 2023
 CP2K| Program compiled on                                                  ln04
 CP2K| Program compiled for                                                local
 CP2K| Data directory path    /work/e05/e05/cahart/smeagol/smgl/cp2k-private-ser
 CP2K| Input file name                                                  3_0V.inp

 GLOBAL| Force Environment number                                              1
 GLOBAL| Basis set file name                                        BASIS_MOLOPT
 GLOBAL| Potential file name                                      GTH_POTENTIALS
 GLOBAL| MM Potential file name                                     MM_POTENTIAL
 GLOBAL| Coordinate file name                                             em.xyz
 GLOBAL| Method name                                                        CP2K
 GLOBAL| Project name                                                         0V
 GLOBAL| Run type                                                         ENERGY
 GLOBAL| FFT library                                                       FFTW3
 GLOBAL| Diagonalization library                                            ELPA
 GLOBAL| Minimum number of eigenvectors for ELPA usage                        16
 GLOBAL| Orthonormality check for eigenvectors                          DISABLED
 GLOBAL| Matrix multiplication library                                 ScaLAPACK
 GLOBAL| All-to-all communication in single precision                          F
 GLOBAL| FFTs using library dependent lengths                                  T
 GLOBAL| Grid backend                                                       AUTO
 GLOBAL| Global print level                                               MEDIUM
 GLOBAL| MPI I/O enabled                                                       T
 GLOBAL| Total number of message passing processes                            64
 GLOBAL| Number of threads for this process                                    1
 GLOBAL| This output is from process                                           0
 GLOBAL| Stack size for threads created by OpenMP (OMP_STACKSIZE)        default
 GLOBAL| CPU model name                          AMD EPYC 7742 64-Core Processor
 GLOBAL| CPUID                                                              1002

 MEMORY| system memory details [Kb]
 MEMORY|                        rank 0           min           max       average
 MEMORY| MemTotal            263341976     263341976     263341976     263341976
 MEMORY| MemFree             232664076     232645896     232664076     232659051
 MEMORY| Buffers                     0             0             0             0
 MEMORY| Cached                4849180       4849180       4849180       4849180
 MEMORY| Slab                  3247956       3247956       3247956       3247956
 MEMORY| SReclaimable           142292        142292        142292        142292
 MEMORY| MemLikelyFree       237655548     237637368     237655548     237650523


 *** Fundamental physical constants (SI units) ***

 *** Literature: B. J. Mohr and B. N. Taylor,
 ***             CODATA recommended values of the fundamental physical
 ***             constants: 2006, Web Version 5.1
 ***             http://physics.nist.gov/constants

 Speed of light in vacuum [m/s]                             2.99792458000000E+08
 Magnetic constant or permeability of vacuum [N/A**2]       1.25663706143592E-06
 Electric constant or permittivity of vacuum [F/m]          8.85418781762039E-12
 Planck constant (h) [J*s]                                  6.62606896000000E-34
 Planck constant (h-bar) [J*s]                              1.05457162825177E-34
 Elementary charge [C]                                      1.60217648700000E-19
 Electron mass [kg]                                         9.10938215000000E-31
 Electron g factor [ ]                                     -2.00231930436220E+00
 Proton mass [kg]                                           1.67262163700000E-27
 Fine-structure constant                                    7.29735253760000E-03
 Rydberg constant [1/m]                                     1.09737315685270E+07
 Avogadro constant [1/mol]                                  6.02214179000000E+23
 Boltzmann constant [J/K]                                   1.38065040000000E-23
 Atomic mass unit [kg]                                      1.66053878200000E-27
 Bohr radius [m]                                            5.29177208590000E-11

 *** Conversion factors ***

 [u] -> [a.u.]                                              1.82288848426455E+03
 [Angstrom] -> [Bohr] = [a.u.]                              1.88972613288564E+00
 [a.u.] = [Bohr] -> [Angstrom]                              5.29177208590000E-01
 [a.u.] -> [s]                                              2.41888432650478E-17
 [a.u.] -> [fs]                                             2.41888432650478E-02
 [a.u.] -> [J]                                              4.35974393937059E-18
 [a.u.] -> [N]                                              8.23872205491840E-08
 [a.u.] -> [K]                                              3.15774647902944E+05
 [a.u.] -> [kJ/mol]                                         2.62549961709828E+03
 [a.u.] -> [kcal/mol]                                       6.27509468713739E+02
 [a.u.] -> [Pa]                                             2.94210107994716E+13
 [a.u.] -> [bar]                                            2.94210107994716E+08
 [a.u.] -> [atm]                                            2.90362800883016E+08
 [a.u.] -> [eV]                                             2.72113838565563E+01
 [a.u.] -> [Hz]                                             6.57968392072181E+15
 [a.u.] -> [1/cm] (wave numbers)                            2.19474631370540E+05
 [a.u./Bohr**2] -> [1/cm]                                   5.14048714338585E+03
 

 CELL_TOP| Volume [angstrom^3]:                                      5340.995510
 CELL_TOP| Vector a [angstrom    12.438     0.000     0.000   |a| =    12.438000
 CELL_TOP| Vector b [angstrom     0.000    12.438     0.000   |b| =    12.438000
 CELL_TOP| Vector c [angstrom     0.000     0.000    34.524   |c| =    34.524000
 CELL_TOP| Angle (b,c), alpha [degree]:                                90.000000
 CELL_TOP| Angle (a,c), beta  [degree]:                                90.000000
 CELL_TOP| Angle (a,b), gamma [degree]:                                90.000000
 CELL_TOP| Numerically orthorhombic:                                         YES
 CELL_TOP| Periodicity                                                       XYZ

 GENERATE|  Preliminary Number of Bonds generated:                             0
 GENERATE|  Achieved consistency in connectivity generation.

 CELL| Volume [angstrom^3]:                                          5340.995510
 CELL| Vector a [angstrom]:      12.438     0.000     0.000   |a| =    12.438000
 CELL| Vector b [angstrom]:       0.000    12.438     0.000   |b| =    12.438000
 CELL| Vector c [angstrom]:       0.000     0.000    34.524   |c| =    34.524000
 CELL| Angle (b,c), alpha [degree]:                                    90.000000
 CELL| Angle (a,c), beta  [degree]:                                    90.000000
 CELL| Angle (a,b), gamma [degree]:                                    90.000000
 CELL| Numerically orthorhombic:                                             YES
 CELL| Periodicity                                                           XYZ

 CELL_REF| Volume [angstrom^3]:                                      5340.995510
 CELL_REF| Vector a [angstrom    12.438     0.000     0.000   |a| =    12.438000
 CELL_REF| Vector b [angstrom     0.000    12.438     0.000   |b| =    12.438000
 CELL_REF| Vector c [angstrom     0.000     0.000    34.524   |c| =    34.524000
 CELL_REF| Angle (b,c), alpha [degree]:                                90.000000
 CELL_REF| Angle (a,c), beta  [degree]:                                90.000000
 CELL_REF| Angle (a,b), gamma [degree]:                                90.000000
 CELL_REF| Numerically orthorhombic:                                         YES
 CELL_REF| Periodicity                                                       XYZ

 *** WARNING in cryssym.F:165 :: Symmetry library SPGLIB not available ***


 *******************************************************************************
                                    Kpoints
 *******************************************************************************
 BRILLOUIN| K-point scheme                                        Monkhorst-Pack
 BRILLOUIN| K-Point grid                                             1    1    1
 BRILLOUIN| Accuracy in Symmetry determination                      0.100000E-07
 BRILLOUIN| K-Point point group symmetrization                               OFF
 BRILLOUIN| Wavefunction type                                            COMPLEX
 BRILLOUIN| Use full k-point grid     
 BRILLOUIN| List of Kpoints [2 Pi/Bohr]                                        1
 BRILLOUIN| Number           Weight            X              Y              Z
 BRILLOUIN|     1           1.00000        0.00000        0.00000        0.00000
 *******************************************************************************

 *******************************************************************************
 *******************************************************************************
 **                                                                           **
 **     #####                         ##              ##                      **
 **    ##   ##            ##          ##              ##                      **
 **   ##     ##                       ##            ######                    **
 **   ##     ##  ##   ##  ##   #####  ##  ##   ####   ##    #####    #####    **
 **   ##     ##  ##   ##  ##  ##      ## ##   ##      ##   ##   ##  ##   ##   **
 **   ##  ## ##  ##   ##  ##  ##      ####     ###    ##   ######   ######    **
 **    ##  ###   ##   ##  ##  ##      ## ##      ##   ##   ##       ##        **
 **     #######   #####   ##   #####  ##  ##  ####    ##    #####   ##        **
 **           ##                                                    ##        **
 **                                                                           **
 **                                                ... make the atoms dance   **
 **                                                                           **
 **            Copyright (C) by CP2K developers group (2000-2022)             **
 **                      J. Chem. Phys. 152, 194103 (2020)                    **
 **                                                                           **
 *******************************************************************************

 DFT| Spin restricted Kohn-Sham (RKS) calculation                            RKS
 DFT| Multiplicity                                                             1
 DFT| Number of spin states                                                    1
 DFT| Charge                                                                   0
 DFT| Self-interaction correction (SIC)                                       NO
 DFT| Cutoffs: density                                              1.000000E-10
 DFT|          gradient                                             1.000000E-10
 DFT|          tau                                                  1.000000E-10
 DFT|          cutoff_smoothing_range                               0.000000E+00
 DFT| XC density smoothing                                                  NONE
 DFT| XC derivatives                                                          PW

 FUNCTIONAL| PADE:
 FUNCTIONAL| S. Goedecker, M. Teter and J. Hutter, Phys. Rev. B 54, 1703 (1996) 


 QS| Method:                                                                 GPW
 QS| Density plane wave grid type                        NON-SPHERICAL FULLSPACE
 QS| Number of grid levels:                                                    4
 QS| Density cutoff [a.u.]:                                                200.0
 QS| Multi grid cutoff [a.u.]: 1) grid level                               200.0
 QS|                           2) grid level                                66.7
 QS|                           3) grid level                                22.2
 QS|                           4) grid level                                 7.4
 QS| Grid level progression factor:                                          3.0
 QS| Relative density cutoff [a.u.]:                                        20.0
 QS| Interaction thresholds: eps_pgf_orb:                                1.0E-05
 QS|                         eps_filter_matrix:                          0.0E+00
 QS|                         eps_core_charge:                            1.0E-12
 QS|                         eps_rho_gspace:                             1.0E-10
 QS|                         eps_rho_rspace:                             1.0E-10
 QS|                         eps_gvg_rspace:                             1.0E-05
 QS|                         eps_ppl:                                    1.0E-02
 QS|                         eps_ppnl:                                   1.0E-07


 ATOMIC KIND INFORMATION

  1. Atomic kind: Au                                    Number of atoms:     234

     Orbital Basis Set                                         SZV-MOLOPT-SR-GTH

       Number of orbital shell sets:                                           1
       Number of orbital shells:                                               3
       Number of primitive Cartesian functions:                                5
       Number of Cartesian basis functions:                                   10
       Number of spherical basis functions:                                    9
       Norm type:                                                              2

       Normalised Cartesian orbitals:

                        Set   Shell   Orbital            Exponent    Coefficient

                          1       1    2s                2.950008       0.074626
                                                         1.563057      -0.007898
                                                         0.666664      -0.297688
                                                         0.251083       0.136809
                                                         0.081714       0.088198

                          1       2    3px               2.950008       0.148824
                                                         1.563057       0.025430
                                                         0.666664      -0.123003
                                                         0.251083       0.033648
                                                         0.081714       0.059008
                          1       2    3py               2.950008       0.148824
                                                         1.563057       0.025430
                                                         0.666664      -0.123003
                                                         0.251083       0.033648
                                                         0.081714       0.059008
                          1       2    3pz               2.950008       0.148824
                                                         1.563057       0.025430
                                                         0.666664      -0.123003
                                                         0.251083       0.033648
                                                         0.081714       0.059008

                          1       3    4dx2              2.950008      -0.139595
                                                         1.563057       1.319655
                                                         0.666664       0.377081
                                                         0.251083       0.046872
                                                         0.081714       0.001393
                          1       3    4dxy              2.950008      -0.241786
                                                         1.563057       2.285709
                                                         0.666664       0.653124
                                                         0.251083       0.081185
                                                         0.081714       0.002412
                          1       3    4dxz              2.950008      -0.241786
                                                         1.563057       2.285709
                                                         0.666664       0.653124
                                                         0.251083       0.081185
                                                         0.081714       0.002412
                          1       3    4dy2              2.950008      -0.139595
                                                         1.563057       1.319655
                                                         0.666664       0.377081
                                                         0.251083       0.046872
                                                         0.081714       0.001393
                          1       3    4dyz              2.950008      -0.241786
                                                         1.563057       2.285709
                                                         0.666664       0.653124
                                                         0.251083       0.081185
                                                         0.081714       0.002412
                          1       3    4dz2              2.950008      -0.139595
                                                         1.563057       1.319655
                                                         0.666664       0.377081
                                                         0.251083       0.046872
                                                         0.081714       0.001393

       Atomic covalent radius [Angstrom]:                                  1.340

       Atomic van der Waals radius [Angstrom]:                             1.660

     GTH Potential information for                                  GTH-PADE-q11

       Description:                       Goedecker-Teter-Hutter pseudopotential
                                           Goedecker et al., PRB 54, 1703 (1996)
                                          Hartwigsen et al., PRB 58, 3641 (1998)
                                                      Krack, TCA 114, 145 (2005)

       Gaussian exponent of the core charge distribution:               1.436369
       Electronic configuration (s p d ...):                           1   0  10

       Parameters of the local part of the GTH pseudopotential:

                          rloc        C1          C2          C3          C4
                        0.590000   11.604428

       Parameters of the non-local part of the GTH pseudopotential:

                   l      r(l)      h(i,j,l)

                   0    0.521180    2.538614   -1.046137
                                   -1.046137    2.701113
                   1    0.630613    0.394853   -0.869592
                                   -0.869592    2.057831
                   2    0.440706   -4.719070    0.727771
                                    0.727771   -1.650429

  2. Atomic kind: S                                     Number of atoms:       2

     Orbital Basis Set                                        DZVP-MOLOPT-SR-GTH

       Number of orbital shell sets:                                           1
       Number of orbital shells:                                               5
       Number of primitive Cartesian functions:                                4
       Number of Cartesian basis functions:                                   14
       Number of spherical basis functions:                                   13
       Norm type:                                                              2

       Normalised Cartesian orbitals:

                        Set   Shell   Orbital            Exponent    Coefficient

                          1       1    2s                2.215855       0.308496
                                                         1.131471       0.138505
                                                         0.410168      -0.373736
                                                         0.140587      -0.040370

                          1       2    3s                2.215855      -0.329528
                                                         1.131471      -0.517509
                                                         0.410168       0.787368
                                                         0.140587      -0.322786

                          1       3    3px               2.215855       0.420434
                                                         1.131471      -0.319283
                                                         0.410168      -0.335323
                                                         0.140587      -0.030976
                          1       3    3py               2.215855       0.420434
                                                         1.131471      -0.319283
                                                         0.410168      -0.335323
                                                         0.140587      -0.030976
                          1       3    3pz               2.215855       0.420434
                                                         1.131471      -0.319283
                                                         0.410168      -0.335323
                                                         0.140587      -0.030976

                          1       4    4px               2.215855       0.241296
                                                         1.131471      -0.170582
                                                         0.410168      -0.186977
                                                         0.140587       0.153509
                          1       4    4py               2.215855       0.241296
                                                         1.131471      -0.170582
                                                         0.410168      -0.186977
                                                         0.140587       0.153509
                          1       4    4pz               2.215855       0.241296
                                                         1.131471      -0.170582
                                                         0.410168      -0.186977
                                                         0.140587       0.153509

                          1       5    4dx2              2.215855       0.573559
                                                         1.131471       0.544926
                                                         0.410168       0.228284
                                                         0.140587       0.008811
                          1       5    4dxy              2.215855       0.993434
                                                         1.131471       0.943840
                                                         0.410168       0.395400
                                                         0.140587       0.015260
                          1       5    4dxz              2.215855       0.993434
                                                         1.131471       0.943840
                                                         0.410168       0.395400
                                                         0.140587       0.015260
                          1       5    4dy2              2.215855       0.573559
                                                         1.131471       0.544926
                                                         0.410168       0.228284
                                                         0.140587       0.008811
                          1       5    4dyz              2.215855       0.993434
                                                         1.131471       0.943840
                                                         0.410168       0.395400
                                                         0.140587       0.015260
                          1       5    4dz2              2.215855       0.573559
                                                         1.131471       0.544926
                                                         0.410168       0.228284
                                                         0.140587       0.008811

       Atomic covalent radius [Angstrom]:                                  1.020

       Atomic van der Waals radius [Angstrom]:                             1.800

     GTH Potential information for                                   GTH-PADE-q6

       Description:                       Goedecker-Teter-Hutter pseudopotential
                                           Goedecker et al., PRB 54, 1703 (1996)
                                          Hartwigsen et al., PRB 58, 3641 (1998)
                                                      Krack, TCA 114, 145 (2005)

       Gaussian exponent of the core charge distribution:               2.834467
       Electronic configuration (s p d ...):                               2   4

       Parameters of the local part of the GTH pseudopotential:

                          rloc        C1          C2          C3          C4
                        0.420000   -6.554492

       Parameters of the non-local part of the GTH pseudopotential:

                   l      r(l)      h(i,j,l)

                   0    0.361757    7.905303   -1.731881
                                   -1.731881    4.471698
                   1    0.405285    3.866579

  3. Atomic kind: C                                     Number of atoms:       6

     Orbital Basis Set                                        DZVP-MOLOPT-SR-GTH

       Number of orbital shell sets:                                           1
       Number of orbital shells:                                               5
       Number of primitive Cartesian functions:                                5
       Number of Cartesian basis functions:                                   14
       Number of spherical basis functions:                                   13
       Norm type:                                                              2

       Normalised Cartesian orbitals:

                        Set   Shell   Orbital            Exponent    Coefficient

                          1       1    2s                5.605331       0.322515
                                                         2.113016       0.213043
                                                         0.769911      -0.209686
                                                         0.348157      -0.219794
                                                         0.128212      -0.022789

                          1       2    3s                5.605331       0.552234
                                                         2.113016       0.082072
                                                         0.769911       0.007843
                                                         0.348157       0.136893
                                                         0.128212       0.074283

                          1       3    3px               5.605331      -0.703879
                                                         2.113016      -0.642521
                                                         0.769911      -0.374851
                                                         0.348157      -0.139743
                                                         0.128212      -0.027849
                          1       3    3py               5.605331      -0.703879
                                                         2.113016      -0.642521
                                                         0.769911      -0.374851
                                                         0.348157      -0.139743
                                                         0.128212      -0.027849
                          1       3    3pz               5.605331      -0.703879
                                                         2.113016      -0.642521
                                                         0.769911      -0.374851
                                                         0.348157      -0.139743
                                                         0.128212      -0.027849

                          1       4    4px               5.605331      -0.480376
                                                         2.113016      -0.552894
                                                         0.769911      -0.316145
                                                         0.348157       0.210505
                                                         0.128212       0.076095
                          1       4    4py               5.605331      -0.480376
                                                         2.113016      -0.552894
                                                         0.769911      -0.316145
                                                         0.348157       0.210505
                                                         0.128212       0.076095
                          1       4    4pz               5.605331      -0.480376
                                                         2.113016      -0.552894
                                                         0.769911      -0.316145
                                                         0.348157       0.210505
                                                         0.128212       0.076095

                          1       5    4dx2              5.605331       0.640026
                                                         2.113016       0.274300
                                                         0.769911       0.446711
                                                         0.348157       0.028674
                                                         0.128212       0.029790
                          1       5    4dxy              5.605331       1.108557
                                                         2.113016       0.475102
                                                         0.769911       0.773726
                                                         0.348157       0.049666
                                                         0.128212       0.051599
                          1       5    4dxz              5.605331       1.108557
                                                         2.113016       0.475102
                                                         0.769911       0.773726
                                                         0.348157       0.049666
                                                         0.128212       0.051599
                          1       5    4dy2              5.605331       0.640026
                                                         2.113016       0.274300
                                                         0.769911       0.446711
                                                         0.348157       0.028674
                                                         0.128212       0.029790
                          1       5    4dyz              5.605331       1.108557
                                                         2.113016       0.475102
                                                         0.769911       0.773726
                                                         0.348157       0.049666
                                                         0.128212       0.051599
                          1       5    4dz2              5.605331       0.640026
                                                         2.113016       0.274300
                                                         0.769911       0.446711
                                                         0.348157       0.028674
                                                         0.128212       0.029790

       Atomic covalent radius [Angstrom]:                                  0.770

       Atomic van der Waals radius [Angstrom]:                             1.700

     GTH Potential information for                                   GTH-PADE-q4

       Description:                       Goedecker-Teter-Hutter pseudopotential
                                           Goedecker et al., PRB 54, 1703 (1996)
                                          Hartwigsen et al., PRB 58, 3641 (1998)
                                                      Krack, TCA 114, 145 (2005)

       Gaussian exponent of the core charge distribution:               4.109048
       Electronic configuration (s p d ...):                               2   2

       Parameters of the local part of the GTH pseudopotential:

                          rloc        C1          C2          C3          C4
                        0.348830   -8.513771    1.228432

       Parameters of the non-local part of the GTH pseudopotential:

                   l      r(l)      h(i,j,l)

                   0    0.304553    9.522842
                   1    0.232677

  4. Atomic kind: H                                     Number of atoms:       4

     Orbital Basis Set                                        DZVP-MOLOPT-SR-GTH

       Number of orbital shell sets:                                           1
       Number of orbital shells:                                               3
       Number of primitive Cartesian functions:                                5
       Number of Cartesian basis functions:                                    5
       Number of spherical basis functions:                                    5
       Norm type:                                                              2

       Normalised Cartesian orbitals:

                        Set   Shell   Orbital            Exponent    Coefficient

                          1       1    2s               10.068468      -0.133023
                                                         2.680223      -0.177618
                                                         0.791502      -0.258419
                                                         0.239116      -0.107525
                                                         0.082193      -0.014019

                          1       2    3s               10.068468       0.344673
                                                         2.680223       1.819821
                                                         0.791502      -0.999069
                                                         0.239116       0.017430
                                                         0.082193       0.082660

                          1       3    3px              10.068468       0.155326
                                                         2.680223       0.367157
                                                         0.791502       0.311480
                                                         0.239116       0.080105
                                                         0.082193       0.033440
                          1       3    3py              10.068468       0.155326
                                                         2.680223       0.367157
                                                         0.791502       0.311480
                                                         0.239116       0.080105
                                                         0.082193       0.033440
                          1       3    3pz              10.068468       0.155326
                                                         2.680223       0.367157
                                                         0.791502       0.311480
                                                         0.239116       0.080105
                                                         0.082193       0.033440

       Atomic covalent radius [Angstrom]:                                  0.320

       Atomic van der Waals radius [Angstrom]:                             1.090

     GTH Potential information for                                   GTH-PADE-q1

       Description:                       Goedecker-Teter-Hutter pseudopotential
                                           Goedecker et al., PRB 54, 1703 (1996)
                                          Hartwigsen et al., PRB 58, 3641 (1998)
                                                      Krack, TCA 114, 145 (2005)

       Gaussian exponent of the core charge distribution:              12.500000
       Electronic configuration (s p d ...):                                   1

       Parameters of the local part of the GTH pseudopotential:

                          rloc        C1          C2          C3          C4
                        0.200000   -4.180237    0.725075


 MOLECULE KIND INFORMATION


 All atoms are their own molecule, skipping detailed information


 TOTAL NUMBERS AND MAXIMUM NUMBERS

  Total number of            - Atomic kinds:                                   4
                             - Atoms:                                        246
                             - Shell sets:                                   246
                             - Shells:                                       754
                             - Primitive Cartesian functions:               1228
                             - Cartesian basis functions:                   2472
                             - Spherical basis functions:                   2230

  Maximum angular momentum of- Orbital basis functions:                        2
                             - Local part of the GTH pseudopotential:          2
                             - Non-local part of the GTH pseudopotential:      4


 MODULE QUICKSTEP: ATOMIC COORDINATES IN ANGSTROM

   Atom Kind Element         X             Y             Z       Z(eff)     Mass
      1    1 Au   79      0.000000      0.000000      0.000000  11.0000 196.9666
      2    1 Au   79      0.000000      4.146000      0.000000  11.0000 196.9666
      3    1 Au   79      0.000000      8.292000      0.000000  11.0000 196.9666
      4    1 Au   79      2.073000      2.073000      0.000000  11.0000 196.9666
      5    1 Au   79      2.073000      6.219000      0.000000  11.0000 196.9666
      6    1 Au   79      2.073000     10.365000      0.000000  11.0000 196.9666
      7    1 Au   79      4.146000      0.000000      0.000000  11.0000 196.9666
      8    1 Au   79      4.146000      4.146000      0.000000  11.0000 196.9666
      9    1 Au   79      4.146000      8.292000      0.000000  11.0000 196.9666
     10    1 Au   79      6.219000      2.073000      0.000000  11.0000 196.9666
     11    1 Au   79      6.219000      6.219000      0.000000  11.0000 196.9666
     12    1 Au   79      6.219000     10.365000      0.000000  11.0000 196.9666
     13    1 Au   79      8.292000      0.000000      0.000000  11.0000 196.9666
     14    1 Au   79      8.292000      4.146000      0.000000  11.0000 196.9666
     15    1 Au   79      8.292000      8.292000      0.000000  11.0000 196.9666
     16    1 Au   79     10.365000      2.073000      0.000000  11.0000 196.9666
     17    1 Au   79     10.365000      6.219000      0.000000  11.0000 196.9666
     18    1 Au   79     10.365000     10.365000      0.000000  11.0000 196.9666
     19    1 Au   79      0.000000      2.073000      2.073000  11.0000 196.9666
     20    1 Au   79      0.000000      6.219000      2.073000  11.0000 196.9666
     21    1 Au   79      0.000000     10.365000      2.073000  11.0000 196.9666
     22    1 Au   79      2.073000      0.000000      2.073000  11.0000 196.9666
     23    1 Au   79      2.073000      4.146000      2.073000  11.0000 196.9666
     24    1 Au   79      2.073000      8.292000      2.073000  11.0000 196.9666
     25    1 Au   79      4.146000      2.073000      2.073000  11.0000 196.9666
     26    1 Au   79      4.146000      6.219000      2.073000  11.0000 196.9666
     27    1 Au   79      4.146000     10.365000      2.073000  11.0000 196.9666
     28    1 Au   79      6.219000      0.000000      2.073000  11.0000 196.9666
     29    1 Au   79      6.219000      4.146000      2.073000  11.0000 196.9666
     30    1 Au   79      6.219000      8.292000      2.073000  11.0000 196.9666
     31    1 Au   79      8.292000      2.073000      2.073000  11.0000 196.9666
     32    1 Au   79      8.292000      6.219000      2.073000  11.0000 196.9666
     33    1 Au   79      8.292000     10.365000      2.073000  11.0000 196.9666
     34    1 Au   79     10.365000      0.000000      2.073000  11.0000 196.9666
     35    1 Au   79     10.365000      4.146000      2.073000  11.0000 196.9666
     36    1 Au   79     10.365000      8.292000      2.073000  11.0000 196.9666
     37    1 Au   79      0.000000      0.000000      4.146000  11.0000 196.9666
     38    1 Au   79      0.000000      4.146000      4.146000  11.0000 196.9666
     39    1 Au   79      0.000000      8.292000      4.146000  11.0000 196.9666
     40    1 Au   79      2.073000      2.073000      4.146000  11.0000 196.9666
     41    1 Au   79      2.073000      6.219000      4.146000  11.0000 196.9666
     42    1 Au   79      2.073000     10.365000      4.146000  11.0000 196.9666
     43    1 Au   79      4.146000      0.000000      4.146000  11.0000 196.9666
     44    1 Au   79      4.146000      4.146000      4.146000  11.0000 196.9666
     45    1 Au   79      4.146000      8.292000      4.146000  11.0000 196.9666
     46    1 Au   79      6.219000      2.073000      4.146000  11.0000 196.9666
     47    1 Au   79      6.219000      6.219000      4.146000  11.0000 196.9666
     48    1 Au   79      6.219000     10.365000      4.146000  11.0000 196.9666
     49    1 Au   79      8.292000      0.000000      4.146000  11.0000 196.9666
     50    1 Au   79      8.292000      4.146000      4.146000  11.0000 196.9666
     51    1 Au   79      8.292000      8.292000      4.146000  11.0000 196.9666
     52    1 Au   79     10.365000      2.073000      4.146000  11.0000 196.9666
     53    1 Au   79     10.365000      6.219000      4.146000  11.0000 196.9666
     54    1 Au   79     10.365000     10.365000      4.146000  11.0000 196.9666
     55    1 Au   79      0.000000      2.073000      6.219000  11.0000 196.9666
     56    1 Au   79      0.000000      6.219000      6.219000  11.0000 196.9666
     57    1 Au   79      0.000000     10.365000      6.219000  11.0000 196.9666
     58    1 Au   79      2.073000      0.000000      6.219000  11.0000 196.9666
     59    1 Au   79      2.073000      4.146000      6.219000  11.0000 196.9666
     60    1 Au   79      2.073000      8.292000      6.219000  11.0000 196.9666
     61    1 Au   79      4.146000      2.073000      6.219000  11.0000 196.9666
     62    1 Au   79      4.146000      6.219000      6.219000  11.0000 196.9666
     63    1 Au   79      4.146000     10.365000      6.219000  11.0000 196.9666
     64    1 Au   79      6.219000      0.000000      6.219000  11.0000 196.9666
     65    1 Au   79      6.219000      4.146000      6.219000  11.0000 196.9666
     66    1 Au   79      6.219000      8.292000      6.219000  11.0000 196.9666
     67    1 Au   79      8.292000      2.073000      6.219000  11.0000 196.9666
     68    1 Au   79      8.292000      6.219000      6.219000  11.0000 196.9666
     69    1 Au   79      8.292000     10.365000      6.219000  11.0000 196.9666
     70    1 Au   79     10.365000      0.000000      6.219000  11.0000 196.9666
     71    1 Au   79     10.365000      4.146000      6.219000  11.0000 196.9666
     72    1 Au   79     10.365000      8.292000      6.219000  11.0000 196.9666
     73    1 Au   79      0.000000      0.000000      8.292000  11.0000 196.9666
     74    1 Au   79      0.000000      4.146000      8.292000  11.0000 196.9666
     75    1 Au   79      0.000000      8.292000      8.292000  11.0000 196.9666
     76    1 Au   79      2.073000      2.073000      8.292000  11.0000 196.9666
     77    1 Au   79      2.073000      6.219000      8.292000  11.0000 196.9666
     78    1 Au   79      2.073000     10.365000      8.292000  11.0000 196.9666
     79    1 Au   79      4.146000      0.000000      8.292000  11.0000 196.9666
     80    1 Au   79      4.146000      4.146000      8.292000  11.0000 196.9666
     81    1 Au   79      4.146000      8.292000      8.292000  11.0000 196.9666
     82    1 Au   79      6.219000      2.073000      8.292000  11.0000 196.9666
     83    1 Au   79      6.219000      6.219000      8.292000  11.0000 196.9666
     84    1 Au   79      6.219000     10.365000      8.292000  11.0000 196.9666
     85    1 Au   79      8.292000      0.000000      8.292000  11.0000 196.9666
     86    1 Au   79      8.292000      4.146000      8.292000  11.0000 196.9666
     87    1 Au   79      8.292000      8.292000      8.292000  11.0000 196.9666
     88    1 Au   79     10.365000      2.073000      8.292000  11.0000 196.9666
     89    1 Au   79     10.365000      6.219000      8.292000  11.0000 196.9666
     90    1 Au   79     10.365000     10.365000      8.292000  11.0000 196.9666
     91    1 Au   79      0.000000      2.073000     10.365000  11.0000 196.9666
     92    1 Au   79      0.000000      6.219000     10.365000  11.0000 196.9666
     93    1 Au   79      0.000000     10.365000     10.365000  11.0000 196.9666
     94    1 Au   79      2.073000      0.000000     10.365000  11.0000 196.9666
     95    1 Au   79      2.073000      4.146000     10.365000  11.0000 196.9666
     96    1 Au   79      2.073000      8.292000     10.365000  11.0000 196.9666
     97    1 Au   79      4.146000      2.073000     10.365000  11.0000 196.9666
     98    1 Au   79      4.146000      6.219000     10.365000  11.0000 196.9666
     99    1 Au   79      4.146000     10.365000     10.365000  11.0000 196.9666
    100    1 Au   79      6.219000      0.000000     10.365000  11.0000 196.9666
    101    1 Au   79      6.219000      4.146000     10.365000  11.0000 196.9666
    102    1 Au   79      6.219000      8.292000     10.365000  11.0000 196.9666
    103    1 Au   79      8.292000      2.073000     10.365000  11.0000 196.9666
    104    1 Au   79      8.292000      6.219000     10.365000  11.0000 196.9666
    105    1 Au   79      8.292000     10.365000     10.365000  11.0000 196.9666
    106    1 Au   79     10.365000      0.000000     10.365000  11.0000 196.9666
    107    1 Au   79     10.365000      4.146000     10.365000  11.0000 196.9666
    108    1 Au   79     10.365000      8.292000     10.365000  11.0000 196.9666
    109    1 Au   79      0.000000      0.000000     12.438000  11.0000 196.9666
    110    1 Au   79      0.000000      4.146000     12.438000  11.0000 196.9666
    111    1 Au   79      0.000000      8.292000     12.438000  11.0000 196.9666
    112    1 Au   79      2.073000      2.073000     12.438000  11.0000 196.9666
    113    1 Au   79      2.073000      6.219000     12.438000  11.0000 196.9666
    114    1 Au   79      2.073000     10.365000     12.438000  11.0000 196.9666
    115    1 Au   79      4.146000      0.000000     12.438000  11.0000 196.9666
    116    1 Au   79      4.146000      4.146000     12.438000  11.0000 196.9666
    117    1 Au   79      4.146000      8.292000     12.438000  11.0000 196.9666
    118    1 Au   79      6.219000      2.073000     12.438000  11.0000 196.9666
    119    1 Au   79      6.219000      6.219000     12.438000  11.0000 196.9666
    120    1 Au   79      6.219000     10.365000     12.438000  11.0000 196.9666
    121    1 Au   79      8.292000      0.000000     12.438000  11.0000 196.9666
    122    1 Au   79      8.292000      4.146000     12.438000  11.0000 196.9666
    123    1 Au   79      8.292000      8.292000     12.438000  11.0000 196.9666
    124    1 Au   79     10.365000      2.073000     12.438000  11.0000 196.9666
    125    1 Au   79     10.365000      6.219000     12.438000  11.0000 196.9666
    126    1 Au   79     10.365000     10.365000     12.438000  11.0000 196.9666
    127    2 S    16      4.146000      2.073000     14.089000   6.0000  32.0650
    128    3 C     6      4.149000      2.077000     15.850000   4.0000  12.0107
    129    4 H     1      2.047000      2.103000     16.033000   1.0000   1.0079
    130    4 H     1      6.244000      2.103000     16.039000   1.0000   1.0079
    131    3 C     6      2.940000      2.083000     16.551000   4.0000  12.0107
    132    3 C     6      5.348000      2.083000     16.551000   4.0000  12.0107
    133    3 C     6      2.933000      2.061000     17.974000   4.0000  12.0107
    134    3 C     6      5.341000      2.061000     17.974000   4.0000  12.0107
    135    4 H     1      2.037000      2.041000     18.485000   1.0000   1.0079
    136    4 H     1      6.234000      2.041000     18.491000   1.0000   1.0079
    137    3 C     6      4.132000      2.067000     18.674000   4.0000  12.0107
    138    2 S    16      4.146000      2.073000     20.436000   6.0000  32.0650
    139    1 Au   79      0.000000      0.000000     22.086000  11.0000 196.9666
    140    1 Au   79      0.000000      4.146000     22.086000  11.0000 196.9666
    141    1 Au   79      0.000000      8.292000     22.086000  11.0000 196.9666
    142    1 Au   79      2.073000      2.073000     22.086000  11.0000 196.9666
    143    1 Au   79      2.073000      6.219000     22.086000  11.0000 196.9666
    144    1 Au   79      2.073000     10.365000     22.086000  11.0000 196.9666
    145    1 Au   79      4.146000      0.000000     22.086000  11.0000 196.9666
    146    1 Au   79      4.146000      4.146000     22.086000  11.0000 196.9666
    147    1 Au   79      4.146000      8.292000     22.086000  11.0000 196.9666
    148    1 Au   79      6.219000      2.073000     22.086000  11.0000 196.9666
    149    1 Au   79      6.219000      6.219000     22.086000  11.0000 196.9666
    150    1 Au   79      6.219000     10.365000     22.086000  11.0000 196.9666
    151    1 Au   79      8.292000      0.000000     22.086000  11.0000 196.9666
    152    1 Au   79      8.292000      4.146000     22.086000  11.0000 196.9666
    153    1 Au   79      8.292000      8.292000     22.086000  11.0000 196.9666
    154    1 Au   79     10.365000      2.073000     22.086000  11.0000 196.9666
    155    1 Au   79     10.365000      6.219000     22.086000  11.0000 196.9666
    156    1 Au   79     10.365000     10.365000     22.086000  11.0000 196.9666
    157    1 Au   79      0.000000      2.073000     24.159000  11.0000 196.9666
    158    1 Au   79      0.000000      6.219000     24.159000  11.0000 196.9666
    159    1 Au   79      0.000000     10.365000     24.159000  11.0000 196.9666
    160    1 Au   79      2.073000      0.000000     24.159000  11.0000 196.9666
    161    1 Au   79      2.073000      4.146000     24.159000  11.0000 196.9666
    162    1 Au   79      2.073000      8.292000     24.159000  11.0000 196.9666
    163    1 Au   79      4.146000      2.073000     24.159000  11.0000 196.9666
    164    1 Au   79      4.146000      6.219000     24.159000  11.0000 196.9666
    165    1 Au   79      4.146000     10.365000     24.159000  11.0000 196.9666
    166    1 Au   79      6.219000      0.000000     24.159000  11.0000 196.9666
    167    1 Au   79      6.219000      4.146000     24.159000  11.0000 196.9666
    168    1 Au   79      6.219000      8.292000     24.159000  11.0000 196.9666
    169    1 Au   79      8.292000      2.073000     24.159000  11.0000 196.9666
    170    1 Au   79      8.292000      6.219000     24.159000  11.0000 196.9666
    171    1 Au   79      8.292000     10.365000     24.159000  11.0000 196.9666
    172    1 Au   79     10.365000      0.000000     24.159000  11.0000 196.9666
    173    1 Au   79     10.365000      4.146000     24.159000  11.0000 196.9666
    174    1 Au   79     10.365000      8.292000     24.159000  11.0000 196.9666
    175    1 Au   79      0.000000      0.000000     26.232000  11.0000 196.9666
    176    1 Au   79      0.000000      4.146000     26.232000  11.0000 196.9666
    177    1 Au   79      0.000000      8.292000     26.232000  11.0000 196.9666
    178    1 Au   79      2.073000      2.073000     26.232000  11.0000 196.9666
    179    1 Au   79      2.073000      6.219000     26.232000  11.0000 196.9666
    180    1 Au   79      2.073000     10.365000     26.232000  11.0000 196.9666
    181    1 Au   79      4.146000      0.000000     26.232000  11.0000 196.9666
    182    1 Au   79      4.146000      4.146000     26.232000  11.0000 196.9666
    183    1 Au   79      4.146000      8.292000     26.232000  11.0000 196.9666
    184    1 Au   79      6.219000      2.073000     26.232000  11.0000 196.9666
    185    1 Au   79      6.219000      6.219000     26.232000  11.0000 196.9666
    186    1 Au   79      6.219000     10.365000     26.232000  11.0000 196.9666
    187    1 Au   79      8.292000      0.000000     26.232000  11.0000 196.9666
    188    1 Au   79      8.292000      4.146000     26.232000  11.0000 196.9666
    189    1 Au   79      8.292000      8.292000     26.232000  11.0000 196.9666
    190    1 Au   79     10.365000      2.073000     26.232000  11.0000 196.9666
    191    1 Au   79     10.365000      6.219000     26.232000  11.0000 196.9666
    192    1 Au   79     10.365000     10.365000     26.232000  11.0000 196.9666
    193    1 Au   79      0.000000      2.073000     28.305000  11.0000 196.9666
    194    1 Au   79      0.000000      6.219000     28.305000  11.0000 196.9666
    195    1 Au   79      0.000000     10.365000     28.305000  11.0000 196.9666
    196    1 Au   79      2.073000      0.000000     28.305000  11.0000 196.9666
    197    1 Au   79      2.073000      4.146000     28.305000  11.0000 196.9666
    198    1 Au   79      2.073000      8.292000     28.305000  11.0000 196.9666
    199    1 Au   79      4.146000      2.073000     28.305000  11.0000 196.9666
    200    1 Au   79      4.146000      6.219000     28.305000  11.0000 196.9666
    201    1 Au   79      4.146000     10.365000     28.305000  11.0000 196.9666
    202    1 Au   79      6.219000      0.000000     28.305000  11.0000 196.9666
    203    1 Au   79      6.219000      4.146000     28.305000  11.0000 196.9666
    204    1 Au   79      6.219000      8.292000     28.305000  11.0000 196.9666
    205    1 Au   79      8.292000      2.073000     28.305000  11.0000 196.9666
    206    1 Au   79      8.292000      6.219000     28.305000  11.0000 196.9666
    207    1 Au   79      8.292000     10.365000     28.305000  11.0000 196.9666
    208    1 Au   79     10.365000      0.000000     28.305000  11.0000 196.9666
    209    1 Au   79     10.365000      4.146000     28.305000  11.0000 196.9666
    210    1 Au   79     10.365000      8.292000     28.305000  11.0000 196.9666
    211    1 Au   79      0.000000      0.000000     30.378000  11.0000 196.9666
    212    1 Au   79      0.000000      4.146000     30.378000  11.0000 196.9666
    213    1 Au   79      0.000000      8.292000     30.378000  11.0000 196.9666
    214    1 Au   79      2.073000      2.073000     30.378000  11.0000 196.9666
    215    1 Au   79      2.073000      6.219000     30.378000  11.0000 196.9666
    216    1 Au   79      2.073000     10.365000     30.378000  11.0000 196.9666
    217    1 Au   79      4.146000      0.000000     30.378000  11.0000 196.9666
    218    1 Au   79      4.146000      4.146000     30.378000  11.0000 196.9666
    219    1 Au   79      4.146000      8.292000     30.378000  11.0000 196.9666
    220    1 Au   79      6.219000      2.073000     30.378000  11.0000 196.9666
    221    1 Au   79      6.219000      6.219000     30.378000  11.0000 196.9666
    222    1 Au   79      6.219000     10.365000     30.378000  11.0000 196.9666
    223    1 Au   79      8.292000      0.000000     30.378000  11.0000 196.9666
    224    1 Au   79      8.292000      4.146000     30.378000  11.0000 196.9666
    225    1 Au   79      8.292000      8.292000     30.378000  11.0000 196.9666
    226    1 Au   79     10.365000      2.073000     30.378000  11.0000 196.9666
    227    1 Au   79     10.365000      6.219000     30.378000  11.0000 196.9666
    228    1 Au   79     10.365000     10.365000     30.378000  11.0000 196.9666
    229    1 Au   79      0.000000      2.073000     32.451000  11.0000 196.9666
    230    1 Au   79      0.000000      6.219000     32.451000  11.0000 196.9666
    231    1 Au   79      0.000000     10.365000     32.451000  11.0000 196.9666
    232    1 Au   79      2.073000      0.000000     32.451000  11.0000 196.9666
    233    1 Au   79      2.073000      4.146000     32.451000  11.0000 196.9666
    234    1 Au   79      2.073000      8.292000     32.451000  11.0000 196.9666
    235    1 Au   79      4.146000      2.073000     32.451000  11.0000 196.9666
    236    1 Au   79      4.146000      6.219000     32.451000  11.0000 196.9666
    237    1 Au   79      4.146000     10.365000     32.451000  11.0000 196.9666
    238    1 Au   79      6.219000      0.000000     32.451000  11.0000 196.9666
    239    1 Au   79      6.219000      4.146000     32.451000  11.0000 196.9666
    240    1 Au   79      6.219000      8.292000     32.451000  11.0000 196.9666
    241    1 Au   79      8.292000      2.073000     32.451000  11.0000 196.9666
    242    1 Au   79      8.292000      6.219000     32.451000  11.0000 196.9666
    243    1 Au   79      8.292000     10.365000     32.451000  11.0000 196.9666
    244    1 Au   79     10.365000      0.000000     32.451000  11.0000 196.9666
    245    1 Au   79     10.365000      4.146000     32.451000  11.0000 196.9666
    246    1 Au   79     10.365000      8.292000     32.451000  11.0000 196.9666



 SCF PARAMETERS         Density guess:                                   RESTART
                        --------------------------------------------------------
                        max_scf:                                               5
                        max_scf_history:                                       0
                        max_diis:                                              4
                        --------------------------------------------------------
                        eps_scf:                                        1.00E-07
                        eps_scf_history:                                0.00E+00
                        eps_diis:                                       1.00E-01
                        eps_eigval:                                     1.00E-05
                        --------------------------------------------------------
                        level_shift [a.u.]:                             0.000000
                        added MOs                                       100    0
                        --------------------------------------------------------
                        Mixing method:                            BROYDEN_MIXING
                                                charge density mixing in g-space
                        --------------------------------------------------------
                        Smear method:                                FERMI_DIRAC
                        Electronic temperature [K]:                        293.0
                        Electronic temperature [a.u.]:                  9.28E-04
                        Accuracy threshold:                             1.00E-10
                        --------------------------------------------------------
                        No outer SCF

 PW_GRID| Information for grid number                                          1
 PW_GRID| Grid distributed over                                    64 processors
 PW_GRID| Real space group dimensions                                    64    1
 PW_GRID| the grid is blocked:                                                NO
 PW_GRID| Cutoff [a.u.]                                                    200.0
 PW_GRID| spherical cutoff:                                                   NO
 PW_GRID|   Bounds   1            -75      74                Points:         150
 PW_GRID|   Bounds   2            -75      74                Points:         150
 PW_GRID|   Bounds   3           -210     209                Points:         420
 PW_GRID| Volume element (a.u.^3)  0.3814E-02     Volume (a.u.^3)     36042.8247
 PW_GRID| Grid span                                                    FULLSPACE
 PW_GRID|   Distribution                         Average         Max         Min
 PW_GRID|   G-Vectors                           147656.2      147750      147600
 PW_GRID|   G-Rays                                 984.4         985         984
 PW_GRID|   Real Space Points                   147656.2      189000      126000

 PW_GRID| Information for grid number                                          2
 PW_GRID| Number of the reference grid                                         1
 PW_GRID| Grid distributed over                                    64 processors
 PW_GRID| Real space group dimensions                                    64    1
 PW_GRID| the grid is blocked:                                                NO
 PW_GRID| Cutoff [a.u.]                                                     66.7
 PW_GRID| spherical cutoff:                                                   NO
 PW_GRID|   Bounds   1            -44      43                Points:          88
 PW_GRID|   Bounds   2            -44      43                Points:          88
 PW_GRID|   Bounds   3           -120     119                Points:         240
 PW_GRID| Volume element (a.u.^3)  0.1939E-01     Volume (a.u.^3)     36042.8247
 PW_GRID| Grid span                                                    FULLSPACE
 PW_GRID|   Distribution                         Average         Max         Min
 PW_GRID|   G-Vectors                            29040.0       30184       27896
 PW_GRID|   G-Rays                                 330.0         343         317
 PW_GRID|   Real Space Points                    29040.0       42240       21120

 PW_GRID| Information for grid number                                          3
 PW_GRID| Number of the reference grid                                         1
 PW_GRID| Grid distributed over                                    64 processors
 PW_GRID| Real space group dimensions                                     8    8
 PW_GRID| the grid is blocked:                                                NO
 PW_GRID| Cutoff [a.u.]                                                     22.2
 PW_GRID| spherical cutoff:                                                   NO
 PW_GRID|   Bounds   1            -25      24                Points:          50
 PW_GRID|   Bounds   2            -25      24                Points:          50
 PW_GRID|   Bounds   3            -70      69                Points:         140
 PW_GRID| Volume element (a.u.^3)  0.1030         Volume (a.u.^3)     36042.8247
 PW_GRID| Grid span                                                    FULLSPACE
 PW_GRID|   Distribution                         Average         Max         Min
 PW_GRID|   G-Vectors                             5468.8        6200        4850
 PW_GRID|   G-Rays                                 109.4         124          97
 PW_GRID|   Real Space Points                     5468.8        6860        5040

 PW_GRID| Information for grid number                                          4
 PW_GRID| Number of the reference grid                                         1
 PW_GRID| Grid distributed over                                    64 processors
 PW_GRID| Real space group dimensions                                     8    8
 PW_GRID| the grid is blocked:                                                NO
 PW_GRID| Cutoff [a.u.]                                                      7.4
 PW_GRID| spherical cutoff:                                                   NO
 PW_GRID|   Bounds   1            -15      14                Points:          30
 PW_GRID|   Bounds   2            -15      14                Points:          30
 PW_GRID|   Bounds   3            -40      39                Points:          80
 PW_GRID| Volume element (a.u.^3)  0.5006         Volume (a.u.^3)     36042.8247
 PW_GRID| Grid span                                                    FULLSPACE
 PW_GRID|   Distribution                         Average         Max         Min
 PW_GRID|   G-Vectors                             1125.0        1260        1020
 PW_GRID|   G-Rays                                  37.5          42          34
 PW_GRID|   Real Space Points                     1125.0        1280         720

 POISSON| Solver                                                        PERIODIC
 POISSON| Periodicity                                                        XYZ

 RS_GRID| Information for grid number                                          1
 RS_GRID|   Bounds   1            -75      74                Points:         150
 RS_GRID|   Bounds   2            -75      74                Points:         150
 RS_GRID|   Bounds   3           -210     209                Points:         420
 RS_GRID| Real space distribution over                                  4 groups
 RS_GRID| Real space distribution along direction                              2
 RS_GRID| Border size                                                         29
 RS_GRID| Real space distribution over                                 16 groups
 RS_GRID| Real space distribution along direction                              3
 RS_GRID| Border size                                                         29
 RS_GRID|   Distribution                         Average         Max         Min
 RS_GRID|   Planes                                  95.5          96          95
 RS_GRID|   Distribution                         Average         Max         Min
 RS_GRID|   Planes                                  84.2          85          84

 RS_GRID| Information for grid number                                          2
 RS_GRID|   Bounds   1            -44      43                Points:          88
 RS_GRID|   Bounds   2            -44      43                Points:          88
 RS_GRID|   Bounds   3           -120     119                Points:         240
 RS_GRID| Real space distribution over                                  4 groups
 RS_GRID| Real space distribution along direction                              2
 RS_GRID| Border size                                                         22
 RS_GRID| Real space distribution over                                 16 groups
 RS_GRID| Real space distribution along direction                              3
 RS_GRID| Border size                                                         22
 RS_GRID|   Distribution                         Average         Max         Min
 RS_GRID|   Planes                                  66.0          66          66
 RS_GRID|   Distribution                         Average         Max         Min
 RS_GRID|   Planes                                  59.0          59          59

 RS_GRID| Information for grid number                                          3
 RS_GRID|   Bounds   1            -25      24                Points:          50
 RS_GRID|   Bounds   2            -25      24                Points:          50
 RS_GRID|   Bounds   3            -70      69                Points:         140
 RS_GRID| Real space fully replicated
 RS_GRID| Group size                                                           1

 RS_GRID| Information for grid number                                          4
 RS_GRID|   Bounds   1            -15      14                Points:          30
 RS_GRID|   Bounds   2            -15      14                Points:          30
 RS_GRID|   Bounds   3            -40      39                Points:          80
 RS_GRID| Real space fully replicated
 RS_GRID| Group size                                                           1

 KPOINTS| Number of kpoint groups                                              1
 KPOINTS| Size of each kpoint group                                           64
 KPOINTS| Number of kpoints per group                                          1

 Number of electrons:                                                       2614
 Number of occupied orbitals:                                               1307
 Number of molecular orbitals:                                              1407

 Number of orbital functions:                                               2230
 Number of independent orbital functions:                                   2230

 Extrapolation method: initial_guess


 SCF WAVEFUNCTION OPTIMIZATION

  Step     Update method      Time    Convergence         Total energy    Change
  ------------------------------------------------------------------------------
 SMEAGOL DEBUG| Number of electrons in the unit cell =      2614.0000000179
     1 NoMix/SMGL  0.30E+00   48.4     6.73357356     -7844.6429009762 -7.84E+03
 SMEAGOL DEBUG| Number of electrons in the unit cell =      2661.2843455461
     2 Broy./SMGL  0.30E+00   10.3     9.41159336     -7798.1767713269  4.65E+01
 SMEAGOL DEBUG| Number of electrons in the unit cell =      2625.8573535980
     3 Broy./SMGL  0.30E+00    9.7     5.26578071     -8613.6287826723 -8.15E+02
 SMEAGOL DEBUG| Number of electrons in the unit cell =      2620.2753515014
     4 Broy./SMGL  0.30E+00    9.8     8.01398629     -7798.8630630254  8.15E+02
 SMEAGOL DEBUG| Number of electrons in the unit cell =      2615.2710576007
     5 Broy./SMGL  0.30E+00    9.8     1.70000844     -8802.5102944161 -1.00E+03

  Leaving inner SCF loop after reaching     5 steps.


  Electronic density on regular grids:      -2615.2710576007       -1.2710576007
  Core density on regular grids:             2613.9999995723       -0.0000004277
  Total charge density on r-space grids:       -1.2710580284
  Total charge density g-space grids:          -1.2710580284

  Overlap energy of the core charge distribution:               0.00001394445198
  Self energy of the core charge distribution:             -13669.31623853269411
  Core Hamiltonian energy:                                   3319.56659555095621
  Hartree energy:                                            2770.88555255145729
  Exchange-correlation energy:                              -1223.64621793029414
  Electronic entropic energy:                                   0.00000000000000
  Fermi energy:                                                 0.00000000000000

  Total energy:                                             -8802.51029441612263

 *** WARNING in qs_scf.F:608 :: SCF run NOT converged ***


 The electron density is written in cube file format to the file:

 0V-ELECTRON_DENSITY-1_0.cube

 !-----------------------------------------------------------------------------!
                     Mulliken Population Analysis

 #  Atom  Element  Kind  Atomic population                           Net charge
       1     Au       1         10.495046                              0.504954
       2     Au       1         10.500082                              0.499918
       3     Au       1         10.503259                              0.496741
       4     Au       1         10.533562                              0.466438
       5     Au       1         10.584650                              0.415350
       6     Au       1         10.545315                              0.454685
       7     Au       1         10.522420                              0.477580
       8     Au       1         10.563596                              0.436404
       9     Au       1         10.493714                              0.506286
      10     Au       1         10.463300                              0.536700
      11     Au       1         10.436864                              0.563136
      12     Au       1         10.371354                              0.628646
      13     Au       1         10.392209                              0.607791
      14     Au       1         10.423111                              0.576889
      15     Au       1         10.455779                              0.544221
      16     Au       1         10.587358                              0.412642
      17     Au       1         10.516073                              0.483927
      18     Au       1         10.592477                              0.407523
      19     Au       1         10.448954                              0.551046
      20     Au       1         10.390912                              0.609088
      21     Au       1         10.515729                              0.484271
      22     Au       1         10.574021                              0.425979
      23     Au       1         10.446718                              0.553282
      24     Au       1         10.448888                              0.551112
      25     Au       1         10.624468                              0.375532
      26     Au       1         10.484124                              0.515876
      27     Au       1         10.477884                              0.522116
      28     Au       1         10.581829                              0.418171
      29     Au       1         10.498356                              0.501644
      30     Au       1         10.529196                              0.470804
      31     Au       1         10.485499                              0.514501
      32     Au       1         10.446463                              0.553537
      33     Au       1         10.507375                              0.492625
      34     Au       1         10.464525                              0.535475
      35     Au       1         10.433710                              0.566290
      36     Au       1         10.433677                              0.566323
      37     Au       1         10.346655                              0.653345
      38     Au       1         10.379152                              0.620848
      39     Au       1         10.546282                              0.453718
      40     Au       1         10.580626                              0.419374
      41     Au       1         10.553719                              0.446281
      42     Au       1         10.750524                              0.249476
      43     Au       1         10.673657                              0.326343
      44     Au       1         10.822587                              0.177413
      45     Au       1         10.720468                              0.279532
      46     Au       1         10.678269                              0.321731
      47     Au       1         10.461644                              0.538356
      48     Au       1         10.457405                              0.542595
      49     Au       1         10.703197                              0.296803
      50     Au       1         10.603004                              0.396996
      51     Au       1         10.471743                              0.528257
      52     Au       1         10.687872                              0.312128
      53     Au       1         10.644007                              0.355993
      54     Au       1         10.656395                              0.343605
      55     Au       1         10.797507                              0.202493
      56     Au       1         10.335370                              0.664630
      57     Au       1         11.114965                             -0.114965
      58     Au       1         11.543150                             -0.543150
      59     Au       1         13.794969                             -2.794969
      60     Au       1         10.429102                              0.570898
      61     Au       1         10.749747                              0.250253
      62     Au       1         11.226788                             -0.226788
      63     Au       1          9.330917                              1.669083
      64     Au       1         11.183793                             -0.183793
      65     Au       1         12.289358                             -1.289358
      66     Au       1         10.614022                              0.385978
      67     Au       1         11.073320                             -0.073320
      68     Au       1         10.802468                              0.197532
      69     Au       1         11.365599                             -0.365599
      70     Au       1         10.516089                              0.483911
      71     Au       1         10.939397                              0.060603
      72     Au       1          9.924069                              1.075931
[...]
    146       Au     1      11.000          8.659                         2.341
    147       Au     1      11.000          8.808                         2.192
    148       Au     1      11.000          8.716                         2.284
    149       Au     1      11.000          8.514                         2.486
    150       Au     1      11.000          8.551                         2.449
    151       Au     1      11.000          8.651                         2.349
    152       Au     1      11.000          8.650                         2.350
    153       Au     1      11.000          8.608                         2.392
    154       Au     1      11.000          8.791                         2.209
    155       Au     1      11.000          8.715                         2.285
    156       Au     1      11.000          8.678                         2.322
    157       Au     1      11.000          3.053                         7.947
    158       Au     1      11.000          2.612                         8.388
    159       Au     1      11.000          2.687                         8.313
    160       Au     1      11.000          2.848                         8.152
    161       Au     1      11.000          2.916                         8.084
    162       Au     1      11.000          2.979                         8.021
    163       Au     1      11.000          2.757                         8.243
    164       Au     1      11.000          3.055                         7.945
    165       Au     1      11.000          2.962                         8.038
    166       Au     1      11.000          2.752                         8.248
    167       Au     1      11.000          2.652                         8.348
    168       Au     1      11.000          3.494                         7.506
    169       Au     1      11.000          2.323                         8.677
    170       Au     1      11.000          3.141                         7.859
    171       Au     1      11.000          3.190                         7.810
    172       Au     1      11.000          2.878                         8.122
    173       Au     1      11.000          2.762                         8.238
    174       Au     1      11.000          2.818                         8.182
    175       Au     1      11.000         11.008                        -0.008
    176       Au     1      11.000         10.968                         0.032
    177       Au     1      11.000         11.456                        -0.456
    178       Au     1      11.000         10.992                         0.008
    179       Au     1      11.000         11.355                        -0.355
    180       Au     1      11.000         10.990                         0.010
    181       Au     1      11.000         10.726                         0.274
    182       Au     1      11.000         10.528                         0.472
    183       Au     1      11.000         11.564                        -0.564
    184       Au     1      11.000         11.413                        -0.413
    185       Au     1      11.000         10.664                         0.336
    186       Au     1      11.000         10.495                         0.505
    187       Au     1      11.000         10.872                         0.128
    188       Au     1      11.000         10.341                         0.659
    189       Au     1      11.000         10.921                         0.079
    190       Au     1      11.000         11.142                        -0.142
    191       Au     1      11.000         10.538                         0.462
    192       Au     1      11.000         11.344                        -0.344
    193       Au     1      11.000         10.789                         0.211
    194       Au     1      11.000         10.695                         0.305
    195       Au     1      11.000         10.686                         0.314
    196       Au     1      11.000         10.822                         0.178
    197       Au     1      11.000         10.523                         0.477
    198       Au     1      11.000         10.853                         0.147
    199       Au     1      11.000         10.577                         0.423
    200       Au     1      11.000         10.893                         0.107
    201       Au     1      11.000         10.666                         0.334
    202       Au     1      11.000         10.650                         0.350
    203       Au     1      11.000         10.779                         0.221
    204       Au     1      11.000         10.658                         0.342
    205       Au     1      11.000         10.663                         0.337
    206       Au     1      11.000         10.808                         0.192
    207       Au     1      11.000         10.650                         0.350
    208       Au     1      11.000         10.764                         0.236
    209       Au     1      11.000         10.440                         0.560
    210       Au     1      11.000         10.663                         0.337
    211       Au     1      11.000         10.499                         0.501
    212       Au     1      11.000         10.451                         0.549
    213       Au     1      11.000         10.551                         0.449
    214       Au     1      11.000         10.552                         0.448
    215       Au     1      11.000         10.524                         0.476
    216       Au     1      11.000         10.538                         0.462
    217       Au     1      11.000         10.549                         0.451
    218       Au     1      11.000         10.624                         0.376
    219       Au     1      11.000         10.530                         0.470
    220       Au     1      11.000         10.495                         0.505
    221       Au     1      11.000         10.551                         0.449
    222       Au     1      11.000         10.460                         0.540
    223       Au     1      11.000         10.454                         0.546
    224       Au     1      11.000         10.435                         0.565
    225       Au     1      11.000         10.484                         0.516
    226       Au     1      11.000         10.561                         0.439
    227       Au     1      11.000         10.451                         0.549
    228       Au     1      11.000         10.557                         0.443
    229       Au     1      11.000         10.507                         0.493
    230       Au     1      11.000         10.446                         0.554
    231       Au     1      11.000         10.498                         0.502
    232       Au     1      11.000         10.505                         0.495
    233       Au     1      11.000         10.505                         0.495
    234       Au     1      11.000         10.532                         0.468
    235       Au     1      11.000         10.527                         0.473
    236       Au     1      11.000         10.500                         0.500
    237       Au     1      11.000         10.457                         0.543
    238       Au     1      11.000         10.534                         0.466
    239       Au     1      11.000         10.478                         0.522
    240       Au     1      11.000         10.445                         0.555
    241       Au     1      11.000         10.564                         0.436
    242       Au     1      11.000         10.460                         0.540
    243       Au     1      11.000         10.456                         0.544
    244       Au     1      11.000         10.472                         0.528
    245       Au     1      11.000         10.487                         0.513
    246       Au     1      11.000         10.535                         0.465

  Total Charge                                                          451.325
 !-----------------------------------------------------------------------------!
 Calculating transmission coefficient

 ENERGY| Total FORCE_EVAL ( QS ) energy [a.u.]:            -8802.510294416122633

 -------------------------------------------------------------------------------
 -                                                                             -
 -                                DBCSR STATISTICS                             -
 -                                                                             -
 -------------------------------------------------------------------------------
 COUNTER                                    TOTAL       BLAS       SMM       ACC
 flops inhomo. stacks                           0       0.0%      0.0%      0.0%
 flops total                         0.000000E+00       0.0%      0.0%      0.0%
 flops max/rank                      0.000000E+00       0.0%      0.0%      0.0%
 matmuls inhomo. stacks                         0       0.0%      0.0%      0.0%
 matmuls total                                  0       0.0%      0.0%      0.0%
 number of processed stacks                     0       0.0%      0.0%      0.0%
 average stack size                                     0.0       0.0       0.0
 marketing flops                     0.000000E+00
 -------------------------------------------------------------------------------
 -                                                                             -
 -                      DBCSR MESSAGE PASSING PERFORMANCE                      -
 -                                                                             -
 -------------------------------------------------------------------------------
 ROUTINE             CALLS      AVE VOLUME [Bytes]
 MP_Bcast                1                     12.
 MP_Allreduce          289                      9.
 MP_Alltoall           513                 183976.
 -------------------------------------------------------------------------------

 -------------------------------------------------------------------------------
 -                                                                             -
 -                                DBM STATISTICS                               -
 -                                                                             -
 -------------------------------------------------------------------------------
    M  x    N  x    K                                          COUNT     PERCENT
 -------------------------------------------------------------------------------

 -------------------------------------------------------------------------------
 -                                                                             -
 -                                GRID STATISTICS                              -
 -                                                                             -
 -------------------------------------------------------------------------------
 LP    KERNEL             BACKEND                              COUNT     PERCENT
 4     collocate ortho    REF                                1296768      48.27%
 4     integrate ortho    REF                                1080640      40.22%
 0     collocate general  REF                                 141696       5.27%
 0     integrate general  REF                                 125952       4.69%
 3     collocate ortho    REF                                  21468       0.80%
 3     integrate ortho    REF                                  17890       0.67%
 2     collocate ortho    REF                                   1236       0.05%
 2     integrate ortho    REF                                   1030       0.04%
 -------------------------------------------------------------------------------

 MEMORY| Estimated peak process memory [MiB]                                 788

 -------------------------------------------------------------------------------
 ----                             MULTIGRID INFO                            ----
 -------------------------------------------------------------------------------
 count for grid        1:         457144          cutoff [a.u.]          200.00
 count for grid        2:         663763          cutoff [a.u.]           66.67
 count for grid        3:         367974          cutoff [a.u.]           22.22
 count for grid        4:         190231          cutoff [a.u.]            7.41
 total gridlevel count  :        1679112

 -------------------------------------------------------------------------------
 -                                                                             -
 -                         MESSAGE PASSING PERFORMANCE                         -
 -                                                                             -
 -------------------------------------------------------------------------------

 ROUTINE             CALLS      AVE VOLUME [Bytes]
 MP_Group                5
 MP_Bcast             2443                 704842.
 MP_Allreduce          619                   1949.
 MP_Sync                 4
 MP_Alltoall           109                2582452.
 MP_ISendRecv         1386                  32560.
 MP_Wait              3253
 MP_ISend             2513                  71237.
 MP_IRecv             2653                  67746.
 MP_Recv              1836                 570880.
 MP_Write_All            2                1659000.
 -------------------------------------------------------------------------------


 -------------------------------------------------------------------------------
 -                                                                             -
 -                           R E F E R E N C E S                               -
 -                                                                             -
 -------------------------------------------------------------------------------
 
 CP2K version 2022.1 (Development Version), the CP2K developers group (2022).
 CP2K is freely available from https://www.cp2k.org/ .

 Kuehne,Thomas D.; Iannuzzi,Marcella; Del Ben,Mauro;
 Rybkin,Vladimir V.; Seewald,Patrick; Stein,Frederick; Laino,Teodoro;
 Khaliullin,Rustam Z.; Schuett,Ole; Schiffmann,Florian; Golze,Dorothea;
 Wilhelm,Jan; Chulkov,Sergey; Bani-Hashemian,Mohammad Hossein;
 Weber,Valery; Borstnik,Urban; Taillefumier,Mathieu;
 Jakobovits,Alice Shoshana; Lazzaro,Alfio; Pabst,Hans; Mueller,Tiziano;
 Schade,Robert; Guidon,Manuel; Andermatt,Samuel; Holmberg,Nico;
 Schenter,Gregory K.; Hehn,Anna; Bussy,Augustin; Belleflamme,Fabian;
 Tabacchi,Gloria; Gloess,Andreas; Lass,Michael; Bethune,Iain;
 Mundy,Christopher J.; Plessl,Christian; Watkins,Matt;
 VandeVondele,Joost; Krack,Matthias; Hutter,Juerg. 
 The Journal of Chemical Physics, 152 (19), (2020). 
 CP2K: An electronic structure and molecular dynamics software package -
 Quickstep: Efficient and accurate electronic structure calculations.
 https://doi.org/10.1063/5.0007045

 Schuett, Ole; Messmer, Peter; Hutter, Juerg; VandeVondele, Joost. 
 Electronic Structure Calculations on Graphics Processing Units, John
 Wiley & Sons, Ltd, 173-190 (2016). 
 GPU-Accelerated Sparse Matrix-Matrix Multiplication for
 Linear Scaling Density Functional Theory.
 https://doi.org/10.1002/9781118670712.ch8

 Heinecke, A; Henry, G; Hutchinson, M; Pabst, H. 
 Proceedings of Intl. Supercomputing Conference, 981-991 (2016). 
 LIBXSMM: Accelerating Small Matrix Multiplications
 by Runtime Code Generation.
 https://doi.org/10.1109/SC.2016.83

 Borstnik, U; VandeVondele, J; Weber, V; Hutter, J. 
 PARALLEL COMPUTING, 40 (5-6), 47-58 (2014). 
 Sparse matrix multiplication: The distributed block-compressed sparse
 row library.
 https://doi.org/10.1016/j.parco.2014.03.012

 Hutter, J; Iannuzzi, M; Schiffmann, F; VandeVondele, J. 
 WIREs Comput Mol Sci., 4 (1), 15-25 (2014). 
 CP2K: atomistic simulations of condensed matter systems.
 https://doi.org/10.1002/wcms.1159

 Marek, A; Blum, V; Johanni, R; Havu, V; Lang, B; Auckenthaler, T;
 Heinecke, A; Bungartz, H; Lederer, H. 
 Journal of Physics: Condensed Matter, 26 (21), (2014). 
 The ELPA library: scalable parallel eigenvalue solutions for
 electronic structure
 theory and computational science.
 https://doi.org/10.1088/0953-8984/26/21/213201

 VandeVondele, J; Hutter, J. 
 JOURNAL OF CHEMICAL PHYSICS, 127 (11), 114105 (2007). 
 Gaussian basis sets for accurate calculations on molecular systems in
 gas and condensed phases.
 https://doi.org/10.1063/1.2770708

 Krack, M. 
 THEORETICAL CHEMISTRY ACCOUNTS, 114 (1-3), 145-152 (2005). 
 Pseudopotentials for H to Kr optimized for gradient-corrected
 exchange-correlation functionals.
 https://doi.org/10.1007/s00214-005-0655-y

 VandeVondele, J; Krack, M; Mohamed, F; Parrinello, M; Chassaing, T;
 Hutter, J. COMPUTER PHYSICS COMMUNICATIONS, 167 (2), 103-128 (2005). 
 QUICKSTEP: Fast and accurate density functional calculations using a
 mixed Gaussian and plane waves approach.
 https://doi.org/10.1016/j.cpc.2004.12.014

 Frigo, M; Johnson, SG. 
 PROCEEDINGS OF THE IEEE, 93 (2), 216-231 (2005). 
 The design and implementation of FFTW3.
 https://doi.org/10.1109/JPROC.2004.840301

 Hartwigsen, C; Goedecker, S; Hutter, J. 
 PHYSICAL REVIEW B, 58 (7), 3641-3662 (1998). 
 Relativistic separable dual-space Gaussian pseudopotentials from H to Rn.
 https://doi.org/10.1103/PhysRevB.58.3641

 Lippert, G; Hutter, J; Parrinello, M. 
 MOLECULAR PHYSICS, 92 (3), 477-487 (1997). 
 A hybrid Gaussian and plane wave density functional scheme.
 https://doi.org/10.1080/002689797170220

 Goedecker, S; Teter, M; Hutter, J. 
 PHYSICAL REVIEW B, 54 (3), 1703-1710 (1996). 
 Separable dual-space Gaussian pseudopotentials.
 https://doi.org/10.1103/PhysRevB.54.1703


 -------------------------------------------------------------------------------
 -                                                                             -
 -                                T I M I N G                                  -
 -                                                                             -
 -------------------------------------------------------------------------------
 SUBROUTINE                       CALLS  ASD         SELF TIME        TOTAL TIME
                                MAXIMUM       AVERAGE  MAXIMUM  AVERAGE  MAXIMUM
 CP2K                                 1  1.0    0.019    0.049  121.736  121.738
 qs_energies                          1  2.0    0.001    0.002  121.459  121.461
 run_smeagol_emtrans                  6  5.5  111.845  111.913  112.543  112.546
 scf_env_do_scf                       1  3.0    0.000    0.001   90.150   90.175
 scf_env_do_scf_inner_loop            5  4.0    0.002    0.003   90.149   90.175
 qs_scf_new_mos_kp                    5  5.0    0.000    0.000   84.973   84.976
 -------------------------------------------------------------------------------

 The number of warnings for this run is : 2
 
 -------------------------------------------------------------------------------
  **** **** ******  **  PROGRAM ENDED AT                 2023-08-29 17:38:40.611
 ***** ** ***  *** **   PROGRAM RAN ON                                 nid001314
 **    ****   ******    PROGRAM RAN BY                                    cahart
 ***** **    ** ** **   PROGRAM PROCESS ID                                 27004
  **** **  *******  **  PROGRAM STOPPED IN /mnt/lustre/a2fs-work2/work/e05/e05/c
                                           ahart/postdoc/transport/au-bdt/benchm
                                           arking/archer/profiling/arm_forge/NEn
                                           ergReal-64-memory_OrderF-F/atoms-246/
                                           steps-5/kpoints-1-1-20_hlb-auto_cores
                                           -64_transm-1
