ATOMS
H             0.00000000      0.00000000     -0.00998254            -0.00052999      0.70710658     -0.00002386
H             0.00000000      0.00000000      0.73998166             0.00052999     -0.70710658      0.00002386
