ATOMS
H             0.00000000      0.00000000     -0.00998254            -0.00005304     -0.66058652     -0.25224084
H             0.00000000      0.00000000      0.73998166            -0.00005304     -0.66058652     -0.25224084
