Siesta Version: ismeagol.1.0
Architecture  : thomas-intel2017update1-intelmpi-mkl
Compiler flags: mpif90 -O2 -fPIC -g -ftree-vectorize -xHost
PARALLEL version

* Running on    2 nodes in parallel
>> Start of run:   1-NOV-2023  17:01:43

                           ***********************       
                           *  WELCOME TO SIESTA  *       
                           ***********************       

reinit: Reading from standard input
************************** Dump of input data file ****************************
SystemName		    Bulk transport		# Descriptive name of the system
SystemLabel 			bulk		# Short name for naming files
NumberOfAtoms    4
NumberOfSpecies			1               # Number of species
PAO.BasisType			split		# Type of basis ('nones', 'nonodes', 'split')
%block ChemicalSpeciesLabel
  1   3  Li
%endblock ChemicalSpeciesLabel
%block PAO.Basis
Li   1
n=2 0 1
0.0
1.0
%endblock PAO.Basis
%block PS.lmax
 Li   1
%endblock PS.lmax
LatticeConstant 1.000 Ang
%block LatticeVectors
  12.0    0.000   0.000	  1
  0.000  12.0   0.000   1
  0.000   0.000     12.0 1
%endblock LatticeVectors
AtomicCoordinatesFormat Ang
%block AtomicCoordinatesAndAtomicSpecies
0.0 0.0 0.0 1 Li
0.0 0.0 3.0 1 Li
0.0 0.0 6.0 1 Li
0.0 0.0 9.0 1 Li
%endblock AtomicCoordinatesAndAtomicSpecies 	
%block kgrid_Monkhorst_Pack
  2   0   0     0.0
  0   2   0     0.0
  0   0   20    0.0
%endblock kgrid_Monkhorst_Pack
xc.functional		LDA		# 'LDA', 'GGA'
xc.authors 	 		CA		# 'CA'='PZ', 'PW92', 'PBE'
SpinPolarized			F		# 'T', 'F'		
#FixSpin           F
#TotalSpin        0.0
NonCollinearSpin		F		# 'T', 'F'
MeshCutoff 	 		    200 Ry		# Equivalent plane wave cutoff for the grid
MaxSCFIterations                10000                2                10000                10000		10000
DM.MixingWeight			0.1
DM.NumberPulay			4	# Pulay convergency accelerator
DM.PulayOnFile			F		# Store in memory ('F') or in files ('T')
#DM.NumberKick         30
#DM.KickMixingWeight   0.1
DM.Tolerance 		0.5E-5
NeglNonOverlapInt		F		# 'F'=do not neglect
SolutionMethod			diagon
ElectronicTemperature		300 K		# Default value
DM.UseSaveDM 			T
#MD.UseSaveXV			T
#MD.UseSaveCG			T
WriteForces      T
WriteCoorXmol			T		# Write Atoms coordinates
SaveElectrostaticPotential      T
#SaveHS				T		# Save the Hamiltonian and Overlap matrices
SaveRho				T		# Save the valence pseudocharge density
#SaveDeltaRho			T
#WriteDenchar			T		# Write Denchar output
WriteMullikenPop		1 #write mulliken population of aromic and orbital charges
#-----
#smeagol
#-----
BulkTransport			T
BulkLeads			LR
************************** End of input data file *****************************

reinit: -----------------------------------------------------------------------
reinit: System Name: Bulk transport
reinit: -----------------------------------------------------------------------
reinit: System Label: bulk                                                        
reinit: -----------------------------------------------------------------------

initatom: Reading input for the pseudopotentials and atomic orbitals ----------
 Species number:            1  Label: Li Atomic number:           3
Ground state valence configuration:   2s01
Reading pseudopotential information in formatted form from Li.psf

Valence configuration for pseudopotential generation:
2s( 1.00) rc: 2.26
2p( 0.00) rc: 2.26
3d( 0.00) rc: 2.59
4f( 0.00) rc: 2.59
relmxkb: Read Max KB Ang. Momentum=    1 for species Li

<basis_specs>
===============================================================================
Li                   Z=   3    Mass=  6.9400        Charge= 0.17977+309
Lmxo=0 Lmxkb= 1    BasisType=split      Semic=F
L=0  Nsemic=0  Cnfigmx=2
          n=1  nzeta=1  polorb=0
            splnorm:   0.15000    
               vcte:    0.0000    
               rinn:    0.0000    
                rcs:    0.0000    
            lambdas:    1.0000    
-------------------------------------------------------------------------------
L=0  Nkbl=1  erefs: 0.17977+309
L=1  Nkbl=1  erefs: 0.17977+309
===============================================================================
</basis_specs>

atom: Called for Li                    (Z =   3)

read_vps: Pseudopotential generation method:
read_vps: ATM3      Troullier-Martins                       
Total valence charge:    1.00000

read_vps: Pseudopotential includes a core correction:
read_vps: Pseudo-core for xc-correction

xc_check: Exchange-correlation functional:
xc_check: Ceperley-Alder
xc_check: WARNING: Pseudopotential generated with GGA Perdew, Burke & Ernzerhof 1996 functional
V l=0 = -2*Zval/r beyond r=  2.4014
V l=1 = -2*Zval/r beyond r=  2.4014
All V_l potentials equal beyond r=  2.2001
This should be close to max(r_c) in ps generation
All pots = -2*Zval/r beyond r=  2.4014

VLOCAL1: 99.0% of the norm of Vloc inside      8.968 Ry
VLOCAL1: 99.9% of the norm of Vloc inside     20.437 Ry
atom: Maximum radius for 4*pi*r*r*local-pseudopot. charge    2.55631
atom: Maximum radius for r*vlocal+2*Zval:    2.17278
GHOST: No ghost state for L =  0
GHOST: No ghost state for L =  1

KBgen: Kleinman-Bylander projectors: 
   l= 0   rc=  2.721230   el= -0.211995   Ekb=  1.936384   kbcos=  0.226371
   l= 1   rc=  2.860793   el= -0.081473   Ekb= -0.871273   kbcos= -0.142848

KBgen: Total number of  Kleinman-Bylander projectors:    4
atom: -------------------------------------------------------------------------

atom: SANKEY-TYPE ORBITALS:

SPLIT: Orbitals with angular momentum L= 0

SPLIT: Basis orbitals for state 2s

SPLIT: PAO cut-off radius determined from an
SPLIT: energy shift=  0.020000 Ry

   izeta = 1
                 lambda =    1.000000
                     rc =    7.777862
                 energy =   -0.192109
                kinetic =    0.194479
    potential(screened) =   -0.386588
       potential(ionic) =   -0.562300
atom: Total number of Sankey-type orbitals:  1

atm_pop: Valence configuration (for local Pseudopot. screening):
 2s( 1.00)                                                            
Vna: chval, zval:    1.00000   1.00000

Vna:  Cut-off radius for the neutral-atom potential:   7.777862
comcore: Pseudo-core radius Rcore=  3.450946

atom: _________________________________________________________________________

prinput: Basis input ----------------------------------------------------------

PAO.BasisType split     

%block ChemicalSpeciesLabel
    1    3 Li                      # Species index, atomic number, species label
%endblock ChemicalSpeciesLabel

%block PAO.Basis                 # Define Basis set
Li                    1                    # Species label, number of l-shells
 n=2   0   1                         # n, l, Nzeta 
   7.778   
   1.000   
%endblock PAO.Basis

prinput: ----------------------------------------------------------------------

coor:   Atomic-coordinates input format  =     Cartesian coordinates
coor:                                          (in Angstroms)

siesta: Atomic coordinates (Bohr) and species
siesta:      0.00000   0.00000   0.00000  1        1
siesta:      0.00000   0.00000   5.66918  1        2
siesta:      0.00000   0.00000  11.33836  1        3
siesta:      0.00000   0.00000  17.00754  1        4

siesta: System type = chain     

initatomlists: Number of atoms, orbitals, and projectors:      4     4    16

SMEAGOL: ******************* SMEAGOL Simulation parameters ********************
SMEAGOL:
SMEAGOL:       The following are some of the SMEAGOL parameters of the
SMEAGOL:       simulation. A complete list of the parameters used,
SMEAGOL:       including default values, can be found in file fdf.log.
SMEAGOL:
redata: Transport in extended molecule                =      F
redata: # of points in real energy axis integral      =   6000
redata: # of contour points in semi-circle            =     34
redata: # of contour points in line region            =     20
redata: # of poles in the Fermi function              =      5
redata: Initial value of the bias potential           =      0.0000 Ry
redata: Final value of the bias potential             =      0.1000 Ry
redata: # of bias potential points                    =     10
redata: Small imaginary part                          =      0.00010
redata: Lower bound for the contour integral          =     -5.0000 Ry
redata: 1 = Leads with different spin                 =      0
redata: Atom of the lead where bias slope starts      =      1
redata: Atom of the lead where bias slope ends        =      4
redata: # of bulk slices to include in EM             =      1
redata: Calculate transmission coefficients           =      F
redata: Set bulk transversal cell                     =      F
redata: Bulk transversal cell size                    =      3
redata: Write leads H and S matrices at .HSL          =      T
redata: Init transport                                =      F
redata: Force super cell in z direction = 3           =      F
redata: Calculated electronic structure for           =     LR
redata: Write converged DM (at bias/MD selected step) =      F
redata: Hartree Leads Left                            =      0.0000 Bohr
redata: Hartree Leads Right                           =      0.0000 Bohr
redata: Hartree Leads Bottom                          =      0.0000 Ry
redata: Periodic leads in perpendicular directions    =      F
redata: Thresholds at generalized SVD                 =      0.000000001000
redata: Write .orb, .ef and .gHS files                =      F
redata: Write .onlyS files                            =      F
redata: Invert only central region    =      F
redata: Calculate Forces    =      F
redata: ***********************************************************************

siesta: ******************** SIESTA Simulation parameters *********************
siesta:
siesta:       The following are some of the SIESTA parameters of the
siesta:       simulation. A complete list of the parameters used,
siesta:       including default values, can be found in file fdf.log.
siesta:
redata: Non-Collinear-spin run             =       F
redata: SpinPolarized (Up/Down) run        =       F
redata: Number of spin components          =       1
redata: Long output                        =       F
redata: Number of Atomic Species           =       1
redata: Charge density info will appear in .RHO file
redata: Write Mulliken Pop.                =     Atomic and Orbital charges
redata: Mesh Cutoff                        =     200.0000  Ry
redata: Net charge of the system           =       0.0000 |e|
redata: Max. number of SCF Iter            =   10000
redata: Performing Pulay mixing using      =       4 iterations
redata: Mix DM in first SCF step ?         =       F
redata: Write Pulay info on disk?          =       F
redata: Discard 1st Pulay DM after kick    =       F
redata: New DM Mixing Weight               =       0.1000
redata: New DM Occupancy tolerance         =       0.000000000001
redata: No kicks to SCF
redata: DM Mixing Weight for Kicks         =       0.5000
redata: DM Tolerance for SCF               =       0.000005
redata: Require Energy convergence for SCF =       F
redata: DM Energy tolerance for SCF        =       0.000100 eV
redata: Require Harris convergence for SCF =       F
redata: DM Harris energy tolerance for SCF =       0.000100 eV
redata: Using Saved Data (generic)         =       F
redata: Use continuation files for DM      =       T
redata: Neglect nonoverlap interactions    =       F
redata: Method of Calculation              =     Diagonalization
redata: Divide and Conquer                 =       T
redata: Electronic Temperature             =       0.0019  Ry
redata: Fix the spin of the system         =       F
redata: Dynamics option                    =     Verlet MD run
redata: Initial MD time step               =       1
redata: Final MD time step                 =       1
redata: Length of MD time step             =       1.0000  fs
redata: Initial Temperature of MD run      =       0.0000  K
redata: Perform a MD quench                =       F
redata: ***********************************************************************

Total number of electrons:     4.000000
Total ionic charge:     4.000000

* ProcessorY, Blocksize:    1   2

k-point displ. along   1 input, could be:     0.00    0.50
k-point displ. along   2 input, could be:     0.00    0.50
k-point displ. along   3 input, could be:     0.00    0.50
 Kpoints in:           44 . Kpoints trimmed:           44

siesta: k-grid: Number of k-points =    44
siesta: k-grid: Cutoff (effective) =    12.000 Ang
siesta: k-grid: Supercell and displacements
siesta: k-grid:    2   0   0      0.000
siesta: k-grid:    0   2   0      0.000
siesta: k-grid:    0   0  20      0.000
siesta: overlap:  rmaxh   veclen  direction
siesta: overlap:  21.2773 22.6767   1
siesta: overlap:  rmaxh   veclen  direction
siesta: overlap:  21.2773 22.6767   2
siesta: overlap:  rmaxh   veclen  direction
siesta: overlap:  21.2773 22.6767   3
SMEAGOL: The size of the cell is being expande
SMEAGOL:  to perform transport calculation
Naive supercell factors:     2    2    3

superc: Internal auxiliary supercell:     2 x     2 x     3  =      12
superc: Number of atoms, orbitals, and projectors:     48     48    192

* Maximum dynamic memory allocated =     1 MB

siesta:                 ===============================
                            Begin MD step =      1
                        ===============================

superc: Internal auxiliary supercell:     2 x     2 x     3  =      12
superc: Number of atoms, orbitals, and projectors:     48     48    192

outcell: Unit cell vectors (Ang):
       12.000000    0.000000    0.000000
        0.000000   12.000000    0.000000
        0.000000    0.000000   12.000000

outcell: Cell vector modules (Ang)   :   12.000000   12.000000   12.000000
outcell: Cell angles (23,13,12) (deg):     90.0000     90.0000     90.0000
outcell: Cell volume (Ang**3)        :   1728.0000
New_DM. Step:     1
Initializing Density Matrix...

InitMesh: MESH =   108 x   108 x   108 =     1259712
InitMesh: Mesh cutoff (required, used) =   200.000   223.865 Ry

* Maximum dynamic memory allocated =    57 MB

stepf: Fermi-Dirac step function

siesta: Program's energy decomposition (eV):
siesta: Ebs     =       -14.524459
siesta: Eions   =        44.223933
siesta: Ena     =        21.070250
siesta: Ekin    =        10.579452
siesta: Enl     =         6.678040
siesta: DEna    =         0.000000
siesta: DUscf   =         0.000000
siesta: DUext   =         0.000000
siesta: Exc     =       -44.765616
siesta: eta*DQ  =         0.000000
siesta: Emadel  =         0.000000
siesta: Emeta   =         0.000000
siesta: Emolmec =         0.000000
siesta: Ekinion =         0.000000
siesta: Eharris =       -52.620529
siesta: Etot    =       -50.661808
siesta: FreeEng =       -50.661808

siesta: iscf   Eharris(eV)      E_KS(eV)   FreeEng(eV)   dDmax  Ef(eV)
siesta:    1      -52.6205      -50.6618      -50.6618  0.4043 -2.9732
timer: Routine,Calls,Time,% = IterSCF        1       0.787  78.81
elaps: Routine,Calls,Wall,% = IterSCF        1       0.400  72.97
siesta:    2      -52.6257      -52.6257      -52.6301  0.0000 -2.9038

siesta: E_KS(eV) =              -52.6257

siesta: E_KS - E_eggbox =       -52.6257

siesta: Atomic forces (eV/Ang):
     1   -0.000000   -0.000000    0.000000
     2    0.000000    0.000000    0.000000
     3    0.000000    0.000000    0.000000
     4    0.000000    0.000000    0.000000
----------------------------------------
   Tot    0.000000    0.000000    0.000000
----------------------------------------
   Max    0.000000
   Res    0.000000    sqrt( Sum f_i^2 / 3N )
----------------------------------------
   Max    0.000000    constrained

Stress-tensor-Voigt (kbar):       -0.00       -0.00       -0.09       -0.00       -0.00       -0.00
(Free)E + p*V (eV/cell)      -52.5948
Target enthalpy (eV/cell)      -52.6301

siesta: Stress tensor (static) (eV/Ang**3):
        -0.000001   -0.000000   -0.000000
        -0.000000   -0.000001   -0.000000
        -0.000000   -0.000000   -0.000059

siesta: Pressure (static):          0.03271794  kBar

siesta: Stress tensor (total) (eV/Ang**3):
        -0.000001   -0.000000   -0.000000
        -0.000000   -0.000001   -0.000000
        -0.000000   -0.000000   -0.000059

siesta: Pressure (total):          0.03271794  kBar
 
mulliken: Atomic and Orbital Populations:

Species: Li                  
Atom  Qatom  Qorb
               2s      
   1  1.000   1.000
   2  1.000   1.000
   3  1.000   1.000
   4  1.000   1.000

mulliken: Qtot =        4.000

siesta: Temp_ion =       0.000 K

* Maximum dynamic memory allocated =    57 MB

coxmol: Writing XMOL coordinates into file bulk.xyz                                                        

siesta: Program's energy decomposition (eV):
siesta: Ebs     =       -14.254728
siesta: Eions   =        44.223933
siesta: Ena     =        21.070250
siesta: Ekin    =         8.639864
siesta: Enl     =         7.036148
siesta: DEna    =        -0.194730
siesta: DUscf   =         0.007852
siesta: DUext   =         0.000000
siesta: Exc     =       -44.961196
siesta: eta*DQ  =         0.000000
siesta: Emadel  =         0.000000
siesta: Emeta   =         0.000000
siesta: Emolmec =         0.000000
siesta: Ekinion =         0.000000
siesta: Eharris =       -52.625749
siesta: Etot    =       -52.625747
siesta: FreeEng =       -52.630108

siesta: Final energy (eV):
siesta:  Band Struct. =     -14.254728
siesta:       Kinetic =       8.639864
siesta:       Hartree =      13.671513
siesta:    Ext. field =       0.000000
siesta:   Exch.-corr. =     -44.961196
siesta:  Ion-electron =     -30.258201
siesta:       Ion-ion =       0.282274
siesta:       Ekinion =       0.000000
siesta:         Total =     -52.625747

siesta: Stress tensor (static) (eV/Ang**3):
siesta:    -0.000001   -0.000000   -0.000000
siesta:    -0.000000   -0.000001   -0.000000
siesta:    -0.000000   -0.000000   -0.000059

siesta: Cell volume =       1728.000000 Ang**3

siesta: Pressure (static):
siesta:                Solid            Molecule  Units
siesta:           0.00000022          0.00000022  Ry/Bohr**3
siesta:           0.00002042          0.00002042  eV/Ang**3
siesta:           0.03271794          0.03271782  kBar
(Free)E+ p_basis*V_orbitals  =         -51.171807
(Free)Eharris+ p_basis*V_orbitals  =         -51.171819

siesta: Electric dipole (a.u.)  =    0.000000    0.000000   -0.000000
siesta: Electric dipole (Debye) =    0.000000    0.000000   -0.000000

SMEAGOL: The transport is along the z direction.

* Maximum dynamic memory allocated : Node    0 =    57 MB
* Maximum dynamic memory allocated : Node    1 =    57 MB

* Maximum memory occured during redistribXZ                   

timer: CPU execution times:
timer:  Routine       Calls   Time/call    Tot.time        %
timer:  siesta            1       2.191       2.191   100.00
timer:  Setup             1       0.200       0.200     9.13
timer:  bands             1       0.000       0.000     0.02
timer:  writewave         1       0.001       0.001     0.04
timer:  KSV_init          1       0.000       0.000     0.01
timer:  IterMD            1       1.534       1.534    70.01
timer:  hsparse           1       0.000       0.000     0.00
timer:  overlap           1       0.001       0.001     0.03
timer:  IterSCF           2       0.540       1.080    49.32
timer:  kinefsm           2       0.000       0.000     0.01
timer:  nlefsm            2       0.002       0.004     0.18
timer:  DHSCF             4       0.444       1.778    81.15
timer:  DHSCF1            1       0.152       0.152     6.92
timer:  DHSCF2            1       0.303       0.303    13.82
timer:  REORD            46       0.001       0.046     2.10
timer:  POISON            5       0.164       0.822    37.54
timer:  DHSCF3            4       0.288       1.152    52.57
timer:  rhoofd            4       0.005       0.022     0.98
timer:  cellXC            4       0.060       0.239    10.92
timer:  vmat              3       0.005       0.015     0.69
timer:  MolMec            2       0.000       0.000     0.00
timer:  diagon            2       0.040       0.081     3.68
timer:  c-eigval         88       0.000       0.035     1.58
timer:  c-buildHS        88       0.000       0.000     0.02
timer:  cdiag           176       0.000       0.074     3.40
timer:  cdiag1          176       0.000       0.007     0.30
timer:  cdiag2          176       0.000       0.009     0.41
timer:  cdiag3          176       0.000       0.036     1.66
timer:  cdiag4          176       0.000       0.004     0.20
timer:  c-eigvec         88       0.000       0.042     1.90
timer:  c-buildD         88       0.000       0.001     0.05
timer:  DHSCF4            1       0.155       0.155     7.08
timer:  dfscf             1       0.084       0.084     3.84
timer:  overfsm           1       0.000       0.000     0.01
timer:  optical           1       0.057       0.057     2.60
  

elaps: ELAPSED times:
elaps:  Routine       Calls   Time/call    Tot.time        %
elaps:  siesta            1       1.188       1.188    99.99
elaps:  Setup             1       0.139       0.139    11.68
elaps:  bands             1       0.000       0.000     0.01
elaps:  writewave         1       0.001       0.001     0.04
elaps:  KSV_init          1       0.000       0.000     0.01
elaps:  IterMD            1       0.782       0.782    65.81
elaps:  hsparse           1       0.000       0.000     0.00
elaps:  overlap           1       0.000       0.000     0.03
elaps:  IterSCF           2       0.274       0.547    46.07
elaps:  kinefsm           2       0.000       0.000     0.01
elaps:  nlefsm            2       0.001       0.002     0.18
elaps:  DHSCF             4       0.224       0.896    75.40
elaps:  DHSCF1            1       0.080       0.080     6.70
elaps:  DHSCF2            1       0.148       0.148    12.46
elaps:  REORD            46       0.001       0.023     1.96
elaps:  POISON            5       0.082       0.412    34.70
elaps:  DHSCF3            4       0.145       0.582    48.97
elaps:  rhoofd            4       0.003       0.011     0.94
elaps:  cellXC            4       0.030       0.120    10.06
elaps:  vmat              3       0.002       0.007     0.62
elaps:  MolMec            2       0.000       0.000     0.00
elaps:  diagon            2       0.022       0.045     3.78
elaps:  c-eigval         88       0.000       0.018     1.48
elaps:  c-buildHS        88       0.000       0.000     0.02
elaps:  cdiag           176       0.000       0.032     2.74
elaps:  cdiag1          176       0.000       0.004     0.30
elaps:  cdiag2          176       0.000       0.004     0.32
elaps:  cdiag3          176       0.000       0.018     1.55
elaps:  cdiag4          176       0.000       0.002     0.16
elaps:  c-eigvec         88       0.000       0.016     1.36
elaps:  c-buildD         88       0.000       0.001     0.07
elaps:  DHSCF4            1       0.078       0.078     6.58
elaps:  dfscf             1       0.043       0.043     3.59
elaps:  overfsm           1       0.000       0.000     0.01
elaps:  optical           1       0.000       0.000     0.01
  
>> End of run:   1-NOV-2023  17:01:45
