     116
 i =        1, E =     -3518.3300986886
 Au         0.0000000000        0.0000000000        0.0000000000
 Au         0.0000000000        4.1460000000        0.0000000000
 Au         2.0730000000        2.0730000000        0.0000000000
 Au         2.0730000000        6.2190000000        0.0000000000
 Au         4.1460000000        0.0000000000        0.0000000000
 Au         4.1460000000        4.1460000000        0.0000000000
 Au         6.2190000000        2.0730000000        0.0000000000
 Au         6.2190000000        6.2190000000        0.0000000000
 Au         0.0000000000        2.0730000000        2.0730000000
 Au         0.0000000000        6.2190000000        2.0730000000
 Au         2.0730000000        0.0000000000        2.0730000000
 Au         2.0730000000        4.1460000000        2.0730000000
 Au         4.1460000000        2.0730000000        2.0730000000
 Au         4.1460000000        6.2190000000        2.0730000000
 Au         6.2190000000        0.0000000000        2.0730000000
 Au         6.2190000000        4.1460000000        2.0730000000
 Au         0.0000000000        0.0000000000        4.1460000000
 Au         0.0000000000        4.1460000000        4.1460000000
 Au         2.0730000000        2.0730000000        4.1460000000
 Au         2.0730000000        6.2190000000        4.1460000000
 Au         4.1460000000        0.0000000000        4.1460000000
 Au         4.1460000000        4.1460000000        4.1460000000
 Au         6.2190000000        2.0730000000        4.1460000000
 Au         6.2190000000        6.2190000000        4.1460000000
 Au         0.0000000000        2.0730000000        6.2190000000
 Au         0.0000000000        6.2190000000        6.2190000000
 Au         2.0730000000        0.0000000000        6.2190000000
 Au         2.0730000000        4.1460000000        6.2190000000
 Au         4.1460000000        2.0730000000        6.2190000000
 Au         4.1460000000        6.2190000000        6.2190000000
 Au         6.2190000000        0.0000000000        6.2190000000
 Au         6.2190000000        4.1460000000        6.2190000000
 Au         0.0000000000        0.0000000000        8.2920000000
 Au         0.0000000000        4.1460000000        8.2920000000
 Au         2.0730000000        2.0730000000        8.2920000000
 Au         2.0730000000        6.2190000000        8.2920000000
 Au         4.1460000000        0.0000000000        8.2920000000
 Au         4.1460000000        4.1460000000        8.2920000000
 Au         6.2190000000        2.0730000000        8.2920000000
 Au         6.2190000000        6.2190000000        8.2920000000
 Au        -0.0000632799        2.0729894645       10.3791122879
 Au        -0.0000139015        6.2189428825       10.3575115670
 Au         2.0726588970        0.0007492776       10.3570828052
 Au         2.0726490594        4.1453558344       10.3570067191
 Au         4.1459822082        2.0729197694       10.3248133675
 Au         4.1459893344        6.2188308905       10.3781220481
 Au         6.2193666113        0.0007579574       10.3570734253
 Au         6.2193771708        4.1453471929       10.3569956927
 Au         0.0000088286       -0.0045583651       12.4415830136
 Au         0.0000096456        4.1506536076       12.4416586206
 Au         2.0126987444        2.0730882845       12.4578395206
 Au         2.0679967822        6.2189779013       12.4415721896
 Au         4.1459882529       -0.0641943535       12.4506629848
 Au         4.1459904790        4.2093359093       12.4514138716
 Au         6.2791594398        2.0730907972       12.4580314931
 Au         6.2240133127        6.2189788974       12.4415818092
  S         4.1463271170        2.0756469700       14.1716678711
  C         4.1443631365        2.0887832005       15.9398941965
  H         2.0092647301        2.0981077755       16.0993370752
  H         6.2796670383        2.0979762566       16.1086793564
  C         2.9362891584        2.0757982626       16.6413115653
  C         5.3476927301        2.0759458788       16.6425587667
  C         2.9338053274        2.0681144832       18.0401492124
  C         5.3455182119        2.0681970008       18.0410388353
  H         2.0003891911        2.0460515619       18.5744719420
  H         6.2732755676        2.0458984115       18.5841598261
  C         4.1375539439        2.0558225592       18.7419123279
  S         4.1417669601        2.0699507029       20.5108835809
 Au         0.0000202795       -0.0043130141       22.2413919077
 Au         0.0000209206        4.1502269695       22.2414663531
 Au         2.0125086720        2.0729282982       22.2248211235
 Au         2.0682600330        6.2189718009       22.2414727924
 Au         4.1461096640       -0.0639620697       22.2318298004
 Au         4.1461114231        4.2110672694       22.2327679517
 Au         6.2804576434        2.0729308989       22.2260069087
 Au         6.2190000000        6.2190000000       22.2450000000
 Au         0.0000000000        2.0730000000       24.3180000000
 Au         0.0000000000        6.2190000000       24.3180000000
 Au         2.0730000000        0.0000000000       24.3180000000
 Au         2.0730000000        4.1460000000       24.3180000000
 Au         4.1460000000        2.0730000000       24.3180000000
 Au         4.1460000000        6.2190000000       24.3180000000
 Au         6.2190000000        0.0000000000       24.3180000000
 Au         6.2190000000        4.1460000000       24.3180000000
 Au         0.0000000000        0.0000000000       26.3910000000
 Au         0.0000000000        4.1460000000       26.3910000000
 Au         2.0730000000        2.0730000000       26.3910000000
 Au         2.0730000000        6.2190000000       26.3910000000
 Au         4.1460000000        0.0000000000       26.3910000000
 Au         4.1460000000        4.1460000000       26.3910000000
 Au         6.2190000000        2.0730000000       26.3910000000
 Au         6.2190000000        6.2190000000       26.3910000000
 Au         0.0000000000        2.0730000000       28.4640000000
 Au         0.0000000000        6.2190000000       28.4640000000
 Au         2.0730000000        0.0000000000       28.4640000000
 Au         2.0730000000        4.1460000000       28.4640000000
 Au         4.1460000000        2.0730000000       28.4640000000
 Au         4.1460000000        6.2190000000       28.4640000000
 Au         6.2190000000        0.0000000000       28.4640000000
 Au         6.2190000000        4.1460000000       28.4640000000
 Au         0.0000000000        0.0000000000       30.5370000000
 Au         0.0000000000        4.1460000000       30.5370000000
 Au         2.0730000000        2.0730000000       30.5370000000
 Au         2.0730000000        6.2190000000       30.5370000000
 Au         4.1460000000        0.0000000000       30.5370000000
 Au         4.1460000000        4.1460000000       30.5370000000
 Au         6.2190000000        2.0730000000       30.5370000000
 Au         6.2190000000        6.2190000000       30.5370000000
 Au         0.0000000000        2.0730000000       32.6100000000
 Au         0.0000000000        6.2190000000       32.6100000000
 Au         2.0730000000        0.0000000000       32.6100000000
 Au         2.0730000000        4.1460000000       32.6100000000
 Au         4.1460000000        2.0730000000       32.6100000000
 Au         4.1460000000        6.2190000000       32.6100000000
 Au         6.2190000000        0.0000000000       32.6100000000
 Au         6.2190000000        4.1460000000       32.6100000000
     116
 i =        2, E =     -3518.3325446929
 Au         0.0000000000        0.0000000000        0.0000000000
 Au         0.0000000000        4.1460000000        0.0000000000
 Au         2.0730000000        2.0730000000        0.0000000000
 Au         2.0730000000        6.2190000000        0.0000000000
 Au         4.1460000000        0.0000000000        0.0000000000
 Au         4.1460000000        4.1460000000        0.0000000000
 Au         6.2190000000        2.0730000000        0.0000000000
 Au         6.2190000000        6.2190000000        0.0000000000
 Au         0.0000000000        2.0730000000        2.0730000000
 Au         0.0000000000        6.2190000000        2.0730000000
 Au         2.0730000000        0.0000000000        2.0730000000
 Au         2.0730000000        4.1460000000        2.0730000000
 Au         4.1460000000        2.0730000000        2.0730000000
 Au         4.1460000000        6.2190000000        2.0730000000
 Au         6.2190000000        0.0000000000        2.0730000000
 Au         6.2190000000        4.1460000000        2.0730000000
 Au         0.0000000000        0.0000000000        4.1460000000
 Au         0.0000000000        4.1460000000        4.1460000000
 Au         2.0730000000        2.0730000000        4.1460000000
 Au         2.0730000000        6.2190000000        4.1460000000
 Au         4.1460000000        0.0000000000        4.1460000000
 Au         4.1460000000        4.1460000000        4.1460000000
 Au         6.2190000000        2.0730000000        4.1460000000
 Au         6.2190000000        6.2190000000        4.1460000000
 Au         0.0000000000        2.0730000000        6.2190000000
 Au         0.0000000000        6.2190000000        6.2190000000
 Au         2.0730000000        0.0000000000        6.2190000000
 Au         2.0730000000        4.1460000000        6.2190000000
 Au         4.1460000000        2.0730000000        6.2190000000
 Au         4.1460000000        6.2190000000        6.2190000000
 Au         6.2190000000        0.0000000000        6.2190000000
 Au         6.2190000000        4.1460000000        6.2190000000
 Au         0.0000000000        0.0000000000        8.2920000000
 Au         0.0000000000        4.1460000000        8.2920000000
 Au         2.0730000000        2.0730000000        8.2920000000
 Au         2.0730000000        6.2190000000        8.2920000000
 Au         4.1460000000        0.0000000000        8.2920000000
 Au         4.1460000000        4.1460000000        8.2920000000
 Au         6.2190000000        2.0730000000        8.2920000000
 Au         6.2190000000        6.2190000000        8.2920000000
 Au        -0.0000035429        2.0730264212       10.3752571847
 Au         0.0000074280        6.2189563656       10.3587687357
 Au         2.0773301209        0.0072367777       10.3610710697
 Au         2.0774490705        4.1389812702       10.3609428864
 Au         4.1460305877        2.0728134674       10.3522153006
 Au         4.1459965988        6.2181286373       10.3698918791
 Au         6.2146370518        0.0072512353       10.3611131098
 Au         6.2145200059        4.1389680552       10.3609819638
 Au         0.0000132692       -0.0267392197       12.4473906357
 Au         0.0000158432        4.1729937493       12.4475313930
 Au         2.0045244400        2.0728691393       12.4778804659
 Au         2.0440861368        6.2189812022       12.4473163317
 Au         4.1459911292       -0.0755909261       12.4628687699
 Au         4.1459927666        4.2200962261       12.4648756129
 Au         6.2874832242        2.0728707993       12.4779823652
 Au         6.2478908442        6.2189837405       12.4473279324
  S         4.1458108889        2.0816456755       14.1630641081
  C         4.1441099798        2.0768801414       15.9352217700
  H         1.9980161775        2.0909660955       16.0971073985
  H         6.2891716308        2.0908760187       16.1051638257
  C         2.9420612596        2.0907162542       16.6467080518
  C         5.3430007083        2.0905108310       16.6514178483
  C         2.9396090723        2.0539482386       18.0302540398
  C         5.3392807900        2.0537921130       18.0347171440
  H         1.9928357401        2.0531633499       18.5770453131
  H         6.2835330110        2.0530192639       18.5853083323
  C         4.1379887611        2.0674738830       18.7472172503
  S         4.1396582924        2.0637645648       20.5195892634
 Au        -0.0003297324       -0.0228844547       22.2343157801
 Au        -0.0003322706        4.1685835923       22.2344443469
 Au         1.9976248037        2.0732422156       22.2007392058
 Au         2.0479720325        6.2189776679       22.2338189096
 Au         4.1456687327       -0.0803863388       22.2138612814
 Au         4.1456709216        4.2279600656       22.2161298988
 Au         6.2950448110        2.0732453551       22.2026042728
 Au         6.2190000000        6.2190000000       22.2450000000
 Au         0.0000000000        2.0730000000       24.3180000000
 Au         0.0000000000        6.2190000000       24.3180000000
 Au         2.0730000000        0.0000000000       24.3180000000
 Au         2.0730000000        4.1460000000       24.3180000000
 Au         4.1460000000        2.0730000000       24.3180000000
 Au         4.1460000000        6.2190000000       24.3180000000
 Au         6.2190000000        0.0000000000       24.3180000000
 Au         6.2190000000        4.1460000000       24.3180000000
 Au         0.0000000000        0.0000000000       26.3910000000
 Au         0.0000000000        4.1460000000       26.3910000000
 Au         2.0730000000        2.0730000000       26.3910000000
 Au         2.0730000000        6.2190000000       26.3910000000
 Au         4.1460000000        0.0000000000       26.3910000000
 Au         4.1460000000        4.1460000000       26.3910000000
 Au         6.2190000000        2.0730000000       26.3910000000
 Au         6.2190000000        6.2190000000       26.3910000000
 Au         0.0000000000        2.0730000000       28.4640000000
 Au         0.0000000000        6.2190000000       28.4640000000
 Au         2.0730000000        0.0000000000       28.4640000000
 Au         2.0730000000        4.1460000000       28.4640000000
 Au         4.1460000000        2.0730000000       28.4640000000
 Au         4.1460000000        6.2190000000       28.4640000000
 Au         6.2190000000        0.0000000000       28.4640000000
 Au         6.2190000000        4.1460000000       28.4640000000
 Au         0.0000000000        0.0000000000       30.5370000000
 Au         0.0000000000        4.1460000000       30.5370000000
 Au         2.0730000000        2.0730000000       30.5370000000
 Au         2.0730000000        6.2190000000       30.5370000000
 Au         4.1460000000        0.0000000000       30.5370000000
 Au         4.1460000000        4.1460000000       30.5370000000
 Au         6.2190000000        2.0730000000       30.5370000000
 Au         6.2190000000        6.2190000000       30.5370000000
 Au         0.0000000000        2.0730000000       32.6100000000
 Au         0.0000000000        6.2190000000       32.6100000000
 Au         2.0730000000        0.0000000000       32.6100000000
 Au         2.0730000000        4.1460000000       32.6100000000
 Au         4.1460000000        2.0730000000       32.6100000000
 Au         4.1460000000        6.2190000000       32.6100000000
 Au         6.2190000000        0.0000000000       32.6100000000
 Au         6.2190000000        4.1460000000       32.6100000000
     116
 i =        3, E =     -3518.3329967235
 Au         0.0000000000        0.0000000000        0.0000000000
 Au         0.0000000000        4.1460000000        0.0000000000
 Au         2.0730000000        2.0730000000        0.0000000000
 Au         2.0730000000        6.2190000000        0.0000000000
 Au         4.1460000000        0.0000000000        0.0000000000
 Au         4.1460000000        4.1460000000        0.0000000000
 Au         6.2190000000        2.0730000000        0.0000000000
 Au         6.2190000000        6.2190000000        0.0000000000
 Au         0.0000000000        2.0730000000        2.0730000000
 Au         0.0000000000        6.2190000000        2.0730000000
 Au         2.0730000000        0.0000000000        2.0730000000
 Au         2.0730000000        4.1460000000        2.0730000000
 Au         4.1460000000        2.0730000000        2.0730000000
 Au         4.1460000000        6.2190000000        2.0730000000
 Au         6.2190000000        0.0000000000        2.0730000000
 Au         6.2190000000        4.1460000000        2.0730000000
 Au         0.0000000000        0.0000000000        4.1460000000
 Au         0.0000000000        4.1460000000        4.1460000000
 Au         2.0730000000        2.0730000000        4.1460000000
 Au         2.0730000000        6.2190000000        4.1460000000
 Au         4.1460000000        0.0000000000        4.1460000000
 Au         4.1460000000        4.1460000000        4.1460000000
 Au         6.2190000000        2.0730000000        4.1460000000
 Au         6.2190000000        6.2190000000        4.1460000000
 Au         0.0000000000        2.0730000000        6.2190000000
 Au         0.0000000000        6.2190000000        6.2190000000
 Au         2.0730000000        0.0000000000        6.2190000000
 Au         2.0730000000        4.1460000000        6.2190000000
 Au         4.1460000000        2.0730000000        6.2190000000
 Au         4.1460000000        6.2190000000        6.2190000000
 Au         6.2190000000        0.0000000000        6.2190000000
 Au         6.2190000000        4.1460000000        6.2190000000
 Au         0.0000000000        0.0000000000        8.2920000000
 Au         0.0000000000        4.1460000000        8.2920000000
 Au         2.0730000000        2.0730000000        8.2920000000
 Au         2.0730000000        6.2190000000        8.2920000000
 Au         4.1460000000        0.0000000000        8.2920000000
 Au         4.1460000000        4.1460000000        8.2920000000
 Au         6.2190000000        2.0730000000        8.2920000000
 Au         6.2190000000        6.2190000000        8.2920000000
 Au         0.0000251399        2.0732018160       10.3822708127
 Au         0.0000031421        6.2189789887       10.3493942593
 Au         2.0817700656        0.0131198276       10.3681309959
 Au         2.0819011135        4.1328297420       10.3681479771
 Au         4.1460203332        2.0728843029       10.3777086569
 Au         4.1459763419        6.2177461046       10.3723761444
 Au         6.2102341552        0.0131322335       10.3682053608
 Au         6.2101049877        4.1328193987       10.3682217608
 Au         0.0000082674       -0.0350552135       12.4526967250
 Au         0.0000096756        4.1813550820       12.4527615354
 Au         1.9966862366        2.0723857104       12.4939089212
 Au         2.0339428874        6.2190466819       12.4518518459
 Au         4.1460062352       -0.0854174491       12.4718708201
 Au         4.1460087929        4.2312112426       12.4744784118
 Au         6.2954371866        2.0723880312       12.4938968004
 Au         6.2580077259        6.2190481891       12.4518881438
  S         4.1458034274        2.0830185850       14.1606361277
  C         4.1435352807        2.0954598125       15.9354979544
  H         1.9927595227        2.0893792626       16.0973232467
  H         6.2937419606        2.0892542720       16.1050875190
  C         2.9415032341        2.0708343268       16.6487184790
  C         5.3435633322        2.0706185696       16.6540946444
  C         2.9382954083        2.0739200427       18.0282019873
  C         5.3407301212        2.0736729196       18.0335197676
  H         1.9880828087        2.0548080315       18.5772342329
  H         6.2895338080        2.0546568349       18.5849534028
  C         4.1384542595        2.0493678293       18.7464279360
  S         4.1383271379        2.0621941813       20.5209485599
 Au        -0.0023542024       -0.0337813107       22.2282521857
 Au        -0.0023562706        4.1793483052       22.2283349349
 Au         1.9903514884        2.0738202853       22.1847388318
 Au         2.0357308143        6.2189832246       22.2263574894
 Au         4.1429095253       -0.0868530325       22.2021598863
 Au         4.1428786857        4.2326226405       22.2047721891
 Au         6.3017266446        2.0738131456       22.1869774904
 Au         6.2190000000        6.2190000000       22.2450000000
 Au         0.0000000000        2.0730000000       24.3180000000
 Au         0.0000000000        6.2190000000       24.3180000000
 Au         2.0730000000        0.0000000000       24.3180000000
 Au         2.0730000000        4.1460000000       24.3180000000
 Au         4.1460000000        2.0730000000       24.3180000000
 Au         4.1460000000        6.2190000000       24.3180000000
 Au         6.2190000000        0.0000000000       24.3180000000
 Au         6.2190000000        4.1460000000       24.3180000000
 Au         0.0000000000        0.0000000000       26.3910000000
 Au         0.0000000000        4.1460000000       26.3910000000
 Au         2.0730000000        2.0730000000       26.3910000000
 Au         2.0730000000        6.2190000000       26.3910000000
 Au         4.1460000000        0.0000000000       26.3910000000
 Au         4.1460000000        4.1460000000       26.3910000000
 Au         6.2190000000        2.0730000000       26.3910000000
 Au         6.2190000000        6.2190000000       26.3910000000
 Au         0.0000000000        2.0730000000       28.4640000000
 Au         0.0000000000        6.2190000000       28.4640000000
 Au         2.0730000000        0.0000000000       28.4640000000
 Au         2.0730000000        4.1460000000       28.4640000000
 Au         4.1460000000        2.0730000000       28.4640000000
 Au         4.1460000000        6.2190000000       28.4640000000
 Au         6.2190000000        0.0000000000       28.4640000000
 Au         6.2190000000        4.1460000000       28.4640000000
 Au         0.0000000000        0.0000000000       30.5370000000
 Au         0.0000000000        4.1460000000       30.5370000000
 Au         2.0730000000        2.0730000000       30.5370000000
 Au         2.0730000000        6.2190000000       30.5370000000
 Au         4.1460000000        0.0000000000       30.5370000000
 Au         4.1460000000        4.1460000000       30.5370000000
 Au         6.2190000000        2.0730000000       30.5370000000
 Au         6.2190000000        6.2190000000       30.5370000000
 Au         0.0000000000        2.0730000000       32.6100000000
 Au         0.0000000000        6.2190000000       32.6100000000
 Au         2.0730000000        0.0000000000       32.6100000000
 Au         2.0730000000        4.1460000000       32.6100000000
 Au         4.1460000000        2.0730000000       32.6100000000
 Au         4.1460000000        6.2190000000       32.6100000000
 Au         6.2190000000        0.0000000000       32.6100000000
 Au         6.2190000000        4.1460000000       32.6100000000
     116
 i =        4, E =     -3518.3335568169
 Au         0.0000000000        0.0000000000        0.0000000000
 Au         0.0000000000        4.1460000000        0.0000000000
 Au         2.0730000000        2.0730000000        0.0000000000
 Au         2.0730000000        6.2190000000        0.0000000000
 Au         4.1460000000        0.0000000000        0.0000000000
 Au         4.1460000000        4.1460000000        0.0000000000
 Au         6.2190000000        2.0730000000        0.0000000000
 Au         6.2190000000        6.2190000000        0.0000000000
 Au         0.0000000000        2.0730000000        2.0730000000
 Au         0.0000000000        6.2190000000        2.0730000000
 Au         2.0730000000        0.0000000000        2.0730000000
 Au         2.0730000000        4.1460000000        2.0730000000
 Au         4.1460000000        2.0730000000        2.0730000000
 Au         4.1460000000        6.2190000000        2.0730000000
 Au         6.2190000000        0.0000000000        2.0730000000
 Au         6.2190000000        4.1460000000        2.0730000000
 Au         0.0000000000        0.0000000000        4.1460000000
 Au         0.0000000000        4.1460000000        4.1460000000
 Au         2.0730000000        2.0730000000        4.1460000000
 Au         2.0730000000        6.2190000000        4.1460000000
 Au         4.1460000000        0.0000000000        4.1460000000
 Au         4.1460000000        4.1460000000        4.1460000000
 Au         6.2190000000        2.0730000000        4.1460000000
 Au         6.2190000000        6.2190000000        4.1460000000
 Au         0.0000000000        2.0730000000        6.2190000000
 Au         0.0000000000        6.2190000000        6.2190000000
 Au         2.0730000000        0.0000000000        6.2190000000
 Au         2.0730000000        4.1460000000        6.2190000000
 Au         4.1460000000        2.0730000000        6.2190000000
 Au         4.1460000000        6.2190000000        6.2190000000
 Au         6.2190000000        0.0000000000        6.2190000000
 Au         6.2190000000        4.1460000000        6.2190000000
 Au         0.0000000000        0.0000000000        8.2920000000
 Au         0.0000000000        4.1460000000        8.2920000000
 Au         2.0730000000        2.0730000000        8.2920000000
 Au         2.0730000000        6.2190000000        8.2920000000
 Au         4.1460000000        0.0000000000        8.2920000000
 Au         4.1460000000        4.1460000000        8.2920000000
 Au         6.2190000000        2.0730000000        8.2920000000
 Au         6.2190000000        6.2190000000        8.2920000000
 Au         0.0000480459        2.0732734622       10.3908172790
 Au        -0.0000008995        6.2189609665       10.3412594839
 Au         2.0830289641        0.0150932062       10.3719560460
 Au         2.0831695757        4.1306618430       10.3721541227
 Au         4.1459940117        2.0729377262       10.3841361018
 Au         4.1459643517        6.2175598180       10.3784686287
 Au         6.2090224014        0.0150946337       10.3720252883
 Au         6.2088828235        4.1306626862       10.3722236918
 Au         0.0000103510       -0.0317655428       12.4550169032
 Au         0.0000115482        4.1779351569       12.4549976595
 Au         1.9912451336        2.0719895911       12.5017872420
 Au         2.0362758835        6.2192256614       12.4531746104
 Au         4.1460226469       -0.0917929975       12.4762110040
 Au         4.1460259885        4.2383773551       12.4794557712
 Au         6.3009332232        2.0719926576       12.5017098430
 Au         6.2556584223        6.2192271519       12.4532467747
  S         4.1459641281        2.0850651672       14.1631882417
  C         4.1430740016        2.0866372548       15.9385138633
  H         1.9926044317        2.0872549844       16.0977221758
  H         6.2940591096        2.0870802042       16.1059596519
  C         2.9385035242        2.0780909846       16.6480090444
  C         5.3458712719        2.0780178891       16.6522886176
  C         2.9357341583        2.0666149143       18.0303809667
  C         5.3437829990        2.0664749795       18.0346579362
  H         1.9875974901        2.0570428746       18.5764614134
  H         6.2897891305        2.0568527506       18.5845325234
  C         4.1387601892        2.0582847187       18.7436621820
  S         4.1383465719        2.0600872624       20.5187389346
 Au        -0.0044169749       -0.0321697502       22.2261871837
 Au        -0.0044131958        4.1779545592       22.2261791736
 Au         1.9874611647        2.0741903201       22.1824625655
 Au         2.0367732840        6.2187784778       22.2232103039
 Au         4.1399520806       -0.0868045670       22.2005803935
 Au         4.1399130063        4.2315500567       22.2035905957
 Au         6.3033726627        2.0741699236       22.1846644627
 Au         6.2190000000        6.2190000000       22.2450000000
 Au         0.0000000000        2.0730000000       24.3180000000
 Au         0.0000000000        6.2190000000       24.3180000000
 Au         2.0730000000        0.0000000000       24.3180000000
 Au         2.0730000000        4.1460000000       24.3180000000
 Au         4.1460000000        2.0730000000       24.3180000000
 Au         4.1460000000        6.2190000000       24.3180000000
 Au         6.2190000000        0.0000000000       24.3180000000
 Au         6.2190000000        4.1460000000       24.3180000000
 Au         0.0000000000        0.0000000000       26.3910000000
 Au         0.0000000000        4.1460000000       26.3910000000
 Au         2.0730000000        2.0730000000       26.3910000000
 Au         2.0730000000        6.2190000000       26.3910000000
 Au         4.1460000000        0.0000000000       26.3910000000
 Au         4.1460000000        4.1460000000       26.3910000000
 Au         6.2190000000        2.0730000000       26.3910000000
 Au         6.2190000000        6.2190000000       26.3910000000
 Au         0.0000000000        2.0730000000       28.4640000000
 Au         0.0000000000        6.2190000000       28.4640000000
 Au         2.0730000000        0.0000000000       28.4640000000
 Au         2.0730000000        4.1460000000       28.4640000000
 Au         4.1460000000        2.0730000000       28.4640000000
 Au         4.1460000000        6.2190000000       28.4640000000
 Au         6.2190000000        0.0000000000       28.4640000000
 Au         6.2190000000        4.1460000000       28.4640000000
 Au         0.0000000000        0.0000000000       30.5370000000
 Au         0.0000000000        4.1460000000       30.5370000000
 Au         2.0730000000        2.0730000000       30.5370000000
 Au         2.0730000000        6.2190000000       30.5370000000
 Au         4.1460000000        0.0000000000       30.5370000000
 Au         4.1460000000        4.1460000000       30.5370000000
 Au         6.2190000000        2.0730000000       30.5370000000
 Au         6.2190000000        6.2190000000       30.5370000000
 Au         0.0000000000        2.0730000000       32.6100000000
 Au         0.0000000000        6.2190000000       32.6100000000