Siesta Version  : trunk-761--smeagol-80
Architecture    : thomas-intel2017update1-intelmpi-mkl
Compiler version: ifort (IFORT) 18.0.3 20180410
Compiler flags  : mpif90 -O2  -fPIC -g -ftree-vectorize -xHost
PP flags        : -DFC_HAVE_ABORT -DMPI
Libraries       :   -lmkl_scalapack_lp64 -lmkl_blacs_intelmpi_lp64 -lmkl_intel_lp64 -lmkl_sequeential -lmkl_core
Directory       : /lustre/scratch/mmm1169/work/cp2k-smeagol-examples/li-chain/siesta4-smeagol/transmission/kpoints-1-1-20
PARALLEL version

* Running on 2 nodes in parallel
>> Start of run:   1-NOV-2023  17:12:27

                           ***********************       
                           *  WELCOME TO SIESTA  *       
                           ***********************       

reinit: Reading from standard input
reinit: Dumped input in INPUT_TMP.71295
************************** Dump of input data file ****************************
SystemName                   0V      # Descriptive name of the system
SystemLabel                    0V              # Short name for naming files
NumberOfAtoms    12
NumberOfSpecies                 1               # Number of species
PAO.BasisType                   split
%block ChemicalSpeciesLabel
  1   3  Li
%endblock ChemicalSpeciesLabel
%block PAO.Basis
Li   1
n=2 0 1
0.0
1.0
%endblock PAO.Basis
%block PS.lmax
 Li   1
%endblock PS.lmax
LatticeConstant 1.000 Ang
%block LatticeVectors
  12.0    0.000   0.000   1
  0.000  12.0   0.000   1
  0.000   0.000     36.0 1
%endblock LatticeVectors
AtomicCoordinatesFormat Ang
%block AtomicCoordinatesAndAtomicSpecies
0.0 0.0 0.0 1 Li
0.0 0.0 3.0 1 Li
0.0 0.0 6.0 1 Li
0.0 0.0 9.0 1 Li
0.0 0.0 12.0 1 Li
0.0 0.0 15.0 1 Li
0.0 0.0 18.0 1 Li
0.0 0.0 21.0 1 Li
0.0 0.0 24.0 1 Li
0.0 0.0 27.0 1 Li
0.0 0.0 30.0 1 Li
0.0 0.0 33.0 1 Li
%endblock AtomicCoordinatesAndAtomicSpecies
%block kgrid_Monkhorst_Pack
  1   0   0     0.0
  0   1   0     0.0
  0   0   1     0.0
%endblock kgrid_Monkhorst_Pack
xc.functional		LDA		# 'LDA', 'GGA'
xc.authors 	 		CA		# 'CA'='PZ', 'PW92', 'PBE'
SpinPolarized			F		# 'T', 'F'		
#FixSpin           F
#TotalSpin        0.0
NonCollinearSpin		F		# 'T', 'F'
MeshCutoff 	 		    200 Ry		# Equivalent plane wave cutoff for the grid
MaxSCFIterations                10000                2                10000                10000		10000
DM.MixingWeight			0.1
DM.NumberPulay			4	# Pulay convergency accelerator
DM.MixSCF1			    T
MixHamiltonian      T
DM.PulayOnFile			F		# Store in memory ('F') or in files ('T')
#DM.NumberKick         30
#DM.KickMixingWeight   0.1
DM.Tolerance 		1.0E-4
NeglNonOverlapInt		F		# 'F'=do not neglect
SolutionMethod			diagon
ElectronicTemperature		300 K		# Default value
DM.UseSaveDM 			T
#MD.UseSaveXV			T
#MD.UseSaveCG			T
WriteForces      T
WriteCoorXmol			T		# Write Atoms coordinates
SaveElectrostaticPotential      T
#SaveHS				T		# Save the Hamiltonian and Overlap matrices
SaveRho				T		# Save the valence pseudocharge density
#SaveDeltaRho			T
#WriteDenchar			T		# Write Denchar output
WriteMullikenPop		0 #write mulliken population of aromic and orbital charges
#-----
#smeagol
#-----
# Perform a transport calculation
EMTransport              T
# Set number of energy points for integrals
NEnergReal               64
# Set bias range
VInitial             0.0 eV
VFinal               0.0 eV
NIVPoints                0
# General variables
Delta                    1e-4
EnergLowestBound    -100.0 eV
# Print transmission coefficient
TrCoefficients           T
InitTransmRange      -10.0 eV
FinalTransmRange      10.0 eV
NTransmPoints            800
TRC.EMDOS                T
TRC.LeadsDOS             T
# Matching of Hartree potential with the leads
HartreeLeadsBottom  -0.39982218 eV
%block SaveBiasSteps
 0
%endblock SaveBiasSteps
************************** End of input data file *****************************

reinit: -----------------------------------------------------------------------
reinit: System Name: 0V
reinit: -----------------------------------------------------------------------
reinit: System Label: 0V
reinit: -----------------------------------------------------------------------

initatom: Reading input for the pseudopotentials and atomic orbitals ----------
Species number:   1 Atomic number:    3 Label: Li
 
Ground state valence configuration:   2s01
Reading pseudopotential information in formatted form from Li.psf

Valence configuration for pseudopotential generation:
2s( 1.00) rc: 2.26
2p( 0.00) rc: 2.26
3d( 0.00) rc: 2.59
4f( 0.00) rc: 2.59
relmxkb: Read Max KB Ang. Momentum=    1 for species Li

<basis_specs>
===============================================================================
Li                   Z=   3    Mass=  6.9400        Charge= 0.17977+309
Lmxo=0 Lmxkb= 1    BasisType=split      Semic=F
L=0  Nsemic=0  Cnfigmx=2
          i=1  nzeta=1  polorb=0  (2s)
            splnorm:   0.15000    
               vcte:    0.0000    
               rinn:    0.0000    
               qcoe:    0.0000    
               qyuk:    0.0000    
               qwid:   0.10000E-01
                rcs:    0.0000    
            lambdas:    1.0000    
-------------------------------------------------------------------------------
L=0  Nkbl=1  erefs: 0.17977+309
L=1  Nkbl=1  erefs: 0.17977+309
===============================================================================
</basis_specs>

atom: Called for Li                    (Z =   3)

read_vps: Pseudopotential generation method:
read_vps: ATM3      Troullier-Martins                       
Total valence charge:    1.00000

read_vps: Pseudopotential includes a core correction:
read_vps: Pseudo-core for xc-correction

xc_check: Exchange-correlation functional:
xc_check: Ceperley-Alder
xc_check: WARNING: Pseudopotential generated with GGA PBE functional
V l=0 = -2*Zval/r beyond r=  2.4014
V l=1 = -2*Zval/r beyond r=  2.4014
All V_l potentials equal beyond r=  2.2001
This should be close to max(r_c) in ps generation
All pots = -2*Zval/r beyond r=  2.4014

VLOCAL1: 99.0% of the norm of Vloc inside      8.968 Ry
VLOCAL1: 99.9% of the norm of Vloc inside     20.437 Ry
atom: Maximum radius for 4*pi*r*r*local-pseudopot. charge    2.55631
atom: Maximum radius for r*vlocal+2*Zval:    2.17278

KBgen: Kleinman-Bylander projectors: 
GHOST: No ghost state for L =  0
   l= 0   rc=  2.721230   el= -0.211995   Ekb=  1.936384   kbcos=  0.226371
GHOST: No ghost state for L =  1
   l= 1   rc=  2.860793   el= -0.081473   Ekb= -0.871273   kbcos= -0.142848

KBgen: Total number of  Kleinman-Bylander projectors:    4
atom: -------------------------------------------------------------------------

atom: SANKEY-TYPE ORBITALS:

SPLIT: Orbitals with angular momentum L= 0

SPLIT: Basis orbitals for state 2s

SPLIT: PAO cut-off radius determined from an
SPLIT: energy shift=  0.020000 Ry

   izeta = 1
                 lambda =    1.000000
                     rc =    7.777862
                 energy =   -0.192109
                kinetic =    0.194479
    potential(screened) =   -0.386588
       potential(ionic) =   -0.562300
atom: Total number of Sankey-type orbitals:  1

atm_pop: Valence configuration (for local Pseudopot. screening):
 2s( 1.00)                                                            
Vna: chval, zval:    1.00000   1.00000

Vna:  Cut-off radius for the neutral-atom potential:   7.777862
comcore: Pseudo-core radius Rcore=  3.450946

atom: _________________________________________________________________________

prinput: Basis input ----------------------------------------------------------

PAO.BasisType split     

%block ChemicalSpeciesLabel
    1    3 Li                      # Species index, atomic number, species label
%endblock ChemicalSpeciesLabel

%block PAO.Basis                 # Define Basis set
Li                    1                    # Species label, number of l-shells
 n=2   0   1                         # n, l, Nzeta 
   7.778   
   1.000   
%endblock PAO.Basis

prinput: ----------------------------------------------------------------------

coor:   Atomic-coordinates input format  =     Cartesian coordinates
coor:                                          (in Angstroms)

siesta: Atomic coordinates (Bohr) and species
siesta:      0.00000   0.00000   0.00000  1        1
siesta:      0.00000   0.00000   5.66918  1        2
siesta:      0.00000   0.00000  11.33836  1        3
siesta:      0.00000   0.00000  17.00754  1        4
siesta:      0.00000   0.00000  22.67672  1        5
siesta:      0.00000   0.00000  28.34590  1        6
siesta:      0.00000   0.00000  34.01508  1        7
siesta:      0.00000   0.00000  39.68426  1        8
siesta:      0.00000   0.00000  45.35345  1        9
siesta:      0.00000   0.00000  51.02263  1       10
siesta:      0.00000   0.00000  56.69181  1       11
siesta:      0.00000   0.00000  62.36099  1       12

siesta: System type = chain     

initatomlists: Number of atoms, orbitals, and projectors:     12    12    48

coxmol: Writing XMOL coordinates into file 0V.xyz                                                              

SMEAGOL: ******************* SMEAGOL Simulation parameters ********************
SMEAGOL:
SMEAGOL:       The following are some of the SMEAGOL parameters of the
SMEAGOL:       simulation. A complete list of the parameters used,
SMEAGOL:       including default values, can be found in file fdf.log.
SMEAGOL:
redata: Transport in extended molecule                =      T
redata: Molecular dynamics with transport             =      F
redata: # of points in real energy axis integral      =     64
redata: # of contour points in semi-circle            =     34
redata: # of contour points in line region            =     20
redata: # of poles in the Fermi function              =      5
redata: Initial value of the bias potential           =      0.0000 Ry
redata: Final value of the bias potential             =      0.0000 Ry
redata: # of bias potential points                    =      0
redata: Small imaginary part                          =      0.00010
redata: Lower bound for the contour integral          =     -7.3498 Ry
redata: 1 = Leads with different spin                 =      0
redata: Atom of the lead where bias slope starts      =      1
redata: Atom of the lead where bias slope ends        =     12
redata: # of bulk slices to include in EM             =      1
redata: Calculate transmission coefficients           =      T
redata: Thresholds at generalized SVD                 =      0.000000001000
redata: Compute full system DOS and PDOS              =      F
redata: Invert only central region                    =      T
redata: Write leads H and S matrices at .HSL          =      F
redata: Set bulk transversal cell                     =      F
redata: Calculate Forces                              =      F
redata: Init transport                                =      F
redata: Write converged DM (at bias/MD selected step) =      F
redata: Hartree Leads Left                            =      0.0000 Bohr
redata: Hartree Leads Right                           =      0.0000 Bohr
redata: Hartree Leads Bottom                          =     -0.0294 Ry
redata: Periodic leads in perpendicular directions    =      F
redata: LDA+U calculation?                            =      F
redata: DMFT calculation?                            =      F
redata: mix de Hamiltonian            =      T
redata: ***********************************************************************

siesta: ******************** Simulation parameters ****************************
siesta:
siesta: The following are some of the parameters of the simulation.
siesta: A complete list of the parameters used, including default values,
siesta: can be found in file out.fdf
siesta:
redata: Spin configuration                          = none
redata: Number of spin components                   = 1
redata: Time-Reversal Symmetry                      = T
redata: Spin-spiral                                 = F
redata: Long output                                 =   F
redata: Number of Atomic Species                    =        1
redata: Charge density info will appear in .RHO file
redata: Write Mulliken Pop.                         = NO
redata: Matel table size (NRTAB)                    =     1024
redata: Mesh Cutoff                                 =   200.0000 Ry
redata: Net charge of the system                    =     0.0000 |e|
redata: Min. number of SCF Iter                     =        0
redata: Max. number of SCF Iter                     =    10000
redata: SCF convergence failure will abort job
redata: SCF mix quantity                            = Hamiltonian
redata: Mix DM or H after convergence               =   F
redata: Recompute H after scf cycle                 =   F
redata: Mix DM in first SCF step                    =   T
redata: Write Pulay info on disk                    =   F
redata: New DM Mixing Weight                        =     0.1000
redata: New DM Occupancy tolerance                  = 0.000000000001
redata: No kicks to SCF
redata: DM Mixing Weight for Kicks                  =     0.5000
redata: Require Harris convergence for SCF          =   F
redata: Harris energy tolerance for SCF             =     0.000100 eV
redata: Require DM convergence for SCF              =   T
redata: DM tolerance for SCF                        =     0.000100
redata: Require EDM convergence for SCF             =   F
redata: EDM tolerance for SCF                       =     0.001000 eV
redata: Require H convergence for SCF               =   T
redata: Hamiltonian tolerance for SCF               =     0.001000 eV
redata: Require (free) Energy convergence for SCF   =   F
redata: (free) Energy tolerance for SCF             =     0.000100 eV
redata: Using Saved Data (generic)                  =   F
redata: Use continuation files for DM               =   T
redata: Neglect nonoverlap interactions             =   F
redata: Method of Calculation                       = Diagonalization
redata: Electronic Temperature                      =   299.9978 K
redata: Fix the spin of the system                  =   F
redata: Max. number of TDED Iter                    =        1
redata: Number of TDED substeps                     =        3
redata: Dynamics option                             = Single-point calculation
mix.SCF: Pulay mixing                            = Pulay
mix.SCF:    Variant                              = stable
mix.SCF:    History steps                        = 4
mix.SCF:    Linear mixing weight                 =     0.100000
mix.SCF:    Mixing weight                        =     0.100000
mix.SCF:    SVD condition                        = 0.1000E-07
redata: ***********************************************************************

%block SCF.Mixers
  Pulay
%endblock SCF.Mixers

%block SCF.Mixer.Pulay
  # Mixing method
  method pulay
  variant stable

  # Mixing options
  weight 0.1000
  weight.linear 0.1000
  history 4
%endblock SCF.Mixer.Pulay
 
DM_history_depth set to one: no extrapolation allowed by default for geometry relaxation
Size of DM history Fstack: 1
Total number of electrons:    12.000000
Total ionic charge:    12.000000

* ProcessorY, Blocksize:    1   7


* Orbital distribution balance (max,min):     7     5

 Kpoints in:            1 . Kpoints trimmed:            1

siesta: k-grid: Number of k-points =         1
siesta: k-points from Monkhorst-Pack grid
siesta: k-cutoff (effective) =     6.000 Ang
siesta: k-point supercell and displacements
siesta: k-grid:    1   0   0      0.000
siesta: k-grid:    0   1   0      0.000
siesta: k-grid:    0   0   1      0.000
 
diag: Algorithm                                     = D&C
diag: Parallel over k                               =   F
diag: Use parallel 2D distribution                  =   F
diag: Parallel block-size                           = 7
diag: Parallel distribution                         =     1 x     2
diag: Used triangular part                          = Lower
diag: Absolute tolerance                            =  0.100E-15
diag: Orthogonalization factor                      =  0.100E-05
diag: Memory factor                                 =  1.0000
 
 
ts: **************************************************************
ts: Save H and S matrices                           =    F
ts: Save DM and EDM matrices                        =    F
ts: Fix Hartree potential                           =    F
ts: Only save the overlap matrix S                  =    F
ts: **************************************************************
 
************************ Begin: TS CHECKS AND WARNINGS ************************
************************ End: TS CHECKS AND WARNINGS **************************


                     ====================================
SMEAGOL                 Bias step =    0, V =  0.000 Ry
                        Single-point calculation
                     ====================================

outcell: Unit cell vectors (Ang):
       12.000000    0.000000    0.000000
        0.000000   12.000000    0.000000
        0.000000    0.000000   36.000000

outcell: Cell vector modules (Ang)   :   12.000000   12.000000   36.000000
outcell: Cell angles (23,13,12) (deg):     90.0000     90.0000     90.0000
outcell: Cell volume (Ang**3)        :   5184.0000
<dSpData1D:S at geom step 0
  <sparsity:sparsity for geom step 0
    nrows_g=12 nrows=7 sparsity=.2431 nnzs=35, refcount: 7>
  <dData1D:(new from dSpData1D) n=35, refcount: 1>
refcount: 1>
new_DM -- step:     1
Initializing Density Matrix...
 
Attempting to read DM from file... Failed...
DM filled with atomic data:
<dSpData2D:DM initialized from atoms
  <sparsity:sparsity for geom step 0
    nrows_g=12 nrows=7 sparsity=.2431 nnzs=35, refcount: 8>
  <dData2D:DM n=35 m=1, refcount: 1>
refcount: 1>
No. of atoms with KB's overlaping orbs in proc 0. Max # of overlaps:       9       3
New grid distribution:   1
           1       1:   54    1:   54    1:   80
           2       1:   54    1:   54   81:  160

InitMesh: MESH =   108 x   108 x   320 =     3732480
InitMesh: (bp) =    54 x    54 x   160 =      466560
InitMesh: Mesh cutoff (required, used) =   200.000   218.372 Ry
ExtMesh (bp) on 0 =   130 x   130 x   156 =     2636400
New grid distribution:   2
           1       1:   54    1:   54    1:   80
           2       1:   54    1:   54   81:  160
New grid distribution:   3
           1       1:   54    1:   54    1:   80
           2       1:   54    1:   54   81:  160
Setting up quadratic distribution...
ExtMesh (bp) on 0 =   130 x   130 x   156 =     2636400
PhiOnMesh: Number of (b)points on node 0 =               233280
PhiOnMesh: nlist on node 0 =               167490
SMEAGOL: average =  -0.02879, shift =  -0.02939, count =  11664
SMEAGOL: minL =   0.00000, maxR =   0.00000

SMEAGOL: Integral method for real-axis = Traditional 
SMEAGOL: average =  -0.04772, shift =  -0.02939, count =  11664
SMEAGOL: minL =   0.00000, maxR =   0.00000

siesta: Program's energy decomposition (eV):
siesta: Ebs     =       -39.276550
siesta: Eions   =       132.671799
siesta: Ena     =        63.210770
siesta: Ekin    =        26.366116
siesta: Enl     =        21.351212
siesta: Eso     =         0.000000
siesta: Eldau   =         0.000000
siesta: DEna    =        -0.975641
siesta: DUscf   =         0.069861
siesta: DUext   =         0.000000
siesta: Enegf   =         0.000000
siesta: Exc     =      -135.667933
siesta: eta*DQ  =         0.000000
siesta: Emadel  =         0.000000
siesta: Emeta   =         0.000000
siesta: Emolmec =         0.000000
siesta: Ekinion =         0.000000
siesta: Eharris =      -164.583880
siesta: Etot    =      -158.317414
siesta: FreeEng =      -158.317414

        iscf     Eharris(eV)        E_KS(eV)     FreeEng(eV)     dDmax    Ef(eV) dHmax(eV)
   scf:    1     -164.583880     -158.317414     -158.317414  0.413503  0.000000  0.788168
timer: Routine,Calls,Time,% = IterSCF        1       1.002  59.18
SMEAGOL: average =   0.26187, shift =  -0.02939, count =  11664
SMEAGOL: minL =   0.00000, maxR =   0.00000
   scf:    2      -87.978547     -130.921221     -130.921221  1.409424  0.000000 16.004810
SMEAGOL: average =   0.25738, shift =  -0.02939, count =  11664
SMEAGOL: minL =   0.00000, maxR =   0.00000
   scf:    3     -130.635661     -130.733606     -130.733606  0.125643  0.000000 16.460271
SMEAGOL: average =   0.26926, shift =  -0.02939, count =  11664
SMEAGOL: minL =   0.00000, maxR =   0.00000
   scf:    4     -132.301022     -131.622786     -131.622786  0.493802  0.000000 14.891238
SMEAGOL: average =  -0.44454, shift =  -0.02939, count =  11664
SMEAGOL: minL =   0.00000, maxR =   0.00000
   scf:    5      -68.140691     -145.678466     -145.678466  2.711666  0.000000 22.884658
SMEAGOL: average =  -0.45257, shift =  -0.02939, count =  11664
SMEAGOL: minL =   0.00000, maxR =   0.00000
   scf:    6     -144.842339     -145.486239     -145.486239  0.070026  0.000000 24.858197
SMEAGOL: average =  -0.44571, shift =  -0.02939, count =  11664
SMEAGOL: minL =   0.00000, maxR =   0.00000
   scf:    7     -147.633018     -146.483710     -146.483710  0.243319  0.000000 25.840468
SMEAGOL: average =  -0.40391, shift =  -0.02939, count =  11664
SMEAGOL: minL =   0.00000, maxR =   0.00000
   scf:    8     -152.021437     -148.566670     -148.566670  0.540788  0.000000 23.974791
SMEAGOL: average =   0.54457, shift =  -0.02939, count =  11664
SMEAGOL: minL =   0.00000, maxR =   0.00000
   scf:    9       67.818459     -109.023591     -109.023591  2.593522  0.000000 57.429638
SMEAGOL: average =   0.34148, shift =  -0.02939, count =  11664
SMEAGOL: minL =   0.00000, maxR =   0.00000
   scf:   10     -142.284459     -126.670103     -126.670103  1.638121  0.000000 40.061275
SMEAGOL: average =   0.36364, shift =  -0.02939, count =  11664
SMEAGOL: minL =   0.00000, maxR =   0.00000
   scf:   11     -123.704245     -125.825487     -125.825487  0.207567  0.000000 28.578442
SMEAGOL: average =   0.53428, shift =  -0.02939, count =  11664
SMEAGOL: minL =   0.00000, maxR =   0.00000
   scf:   12      -74.976955     -112.011912     -112.011912  1.835766  0.000000 25.142081
SMEAGOL: average =  -0.47156, shift =  -0.02939, count =  11664
SMEAGOL: minL =   0.00000, maxR =   0.00000
   scf:   13      -35.200528     -144.909560     -144.909560  2.791170  0.000000 35.429131
SMEAGOL: average =  -0.43517, shift =  -0.02939, count =  11664
SMEAGOL: minL =   0.00000, maxR =   0.00000
   scf:   14     -152.483698     -148.048895     -148.048895  0.453876  0.000000 22.166619
SMEAGOL: average =   0.51324, shift =  -0.02939, count =  11664
SMEAGOL: minL =   0.00000, maxR =   0.00000
   scf:   15       46.714134     -115.164396     -115.164396  2.607534  0.000000 25.750567
SMEAGOL: average =  -0.45230, shift =  -0.02939, count =  11664
SMEAGOL: minL =   0.00000, maxR =   0.00000
   scf:   16      -47.619527     -147.005793     -147.005793  2.642032  0.000000 23.039941
SMEAGOL: average =  -0.46021, shift =  -0.02939, count =  11664
SMEAGOL: minL =   0.00000, maxR =   0.00000
   scf:   17     -144.631488     -145.972203     -145.972203  0.122781  0.000000 25.310015
SMEAGOL: average =  -0.00163, shift =  -0.02939, count =  11664
SMEAGOL: minL =   0.00000, maxR =   0.00000
   scf:   18     -143.001851     -156.003844     -156.003844  2.400222  0.000000  3.099030
SMEAGOL: average =  -0.18625, shift =  -0.02939, count =  11664
SMEAGOL: minL =   0.00000, maxR =   0.00000
   scf:   19     -152.831381     -158.436565     -158.436565  0.984037  0.000000  8.082787
SMEAGOL: average =  -0.31270, shift =  -0.02939, count =  11664
SMEAGOL: minL =   0.00000, maxR =   0.00000
   scf:   20     -146.345569     -155.112088     -155.112088  0.940903  0.000000 13.394446
SMEAGOL: average =   0.49949, shift =  -0.02939, count =  11664
SMEAGOL: minL =   0.00000, maxR =   0.00000
   scf:   21       22.409966     -116.413156     -116.413156  1.838906  0.000000 22.166277
SMEAGOL: average =  -0.02398, shift =  -0.02939, count =  11664
SMEAGOL: minL =   0.00000, maxR =   0.00000
   scf:   22     -174.572080     -157.260833     -157.260833  1.068629  0.000000  0.903941
SMEAGOL: average =  -0.02579, shift =  -0.02939, count =  11664
SMEAGOL: minL =   0.00000, maxR =   0.00000
   scf:   23     -157.417731     -157.345115     -157.345115  0.054237  0.000000  0.747158
SMEAGOL: average =  -0.02509, shift =  -0.02939, count =  11664
SMEAGOL: minL =   0.00000, maxR =   0.00000
   scf:   24     -156.986061     -157.275947     -157.275947  0.321887  0.000000  0.667100
SMEAGOL: average =  -0.08075, shift =  -0.02939, count =  11664
SMEAGOL: minL =   0.00000, maxR =   0.00000
   scf:   25     -159.736117     -158.840450     -158.840450  0.217930  0.000000  2.450503
SMEAGOL: average =  -0.06316, shift =  -0.02939, count =  11664
SMEAGOL: minL =   0.00000, maxR =   0.00000
   scf:   26     -158.315818     -158.557922     -158.557922  0.052132  0.000000  1.665170
SMEAGOL: average =  -0.02831, shift =  -0.02939, count =  11664
SMEAGOL: minL =   0.00000, maxR =   0.00000
   scf:   27     -156.823314     -157.748121     -157.748121  0.106163  0.000000  0.166913
SMEAGOL: average =  -0.03054, shift =  -0.02939, count =  11664
SMEAGOL: minL =   0.00000, maxR =   0.00000
   scf:   28     -157.966397     -157.858398     -157.858398  0.027039  0.000000  0.135297
SMEAGOL: average =  -0.02912, shift =  -0.02939, count =  11664
SMEAGOL: minL =   0.00000, maxR =   0.00000
   scf:   29     -157.836972     -157.847923     -157.847923  0.011489  0.000000  0.095613
SMEAGOL: average =  -0.03000, shift =  -0.02939, count =  11664
SMEAGOL: minL =   0.00000, maxR =   0.00000
   scf:   30     -157.961455     -157.905061     -157.905061  0.033194  0.000000  0.085233
SMEAGOL: average =  -0.02942, shift =  -0.02939, count =  11664
SMEAGOL: minL =   0.00000, maxR =   0.00000
   scf:   31     -157.874275     -157.889685     -157.889685  0.004357  0.000000  0.054888
SMEAGOL: average =  -0.02937, shift =  -0.02939, count =  11664
SMEAGOL: minL =   0.00000, maxR =   0.00000
   scf:   32     -157.872213     -157.880961     -157.880961  0.003645  0.000000  0.034545
SMEAGOL: average =  -0.02933, shift =  -0.02939, count =  11664
SMEAGOL: minL =   0.00000, maxR =   0.00000
   scf:   33     -157.866086     -157.873538     -157.873538  0.004175  0.000000  0.015546
SMEAGOL: average =  -0.02935, shift =  -0.02939, count =  11664
SMEAGOL: minL =   0.00000, maxR =   0.00000
   scf:   34     -157.873831     -157.873707     -157.873707  0.003827  0.000000  0.008386
SMEAGOL: average =  -0.02943, shift =  -0.02939, count =  11664
SMEAGOL: minL =   0.00000, maxR =   0.00000
   scf:   35     -157.883923     -157.878816     -157.878816  0.001873  0.000000  0.004259
SMEAGOL: average =  -0.02938, shift =  -0.02939, count =  11664
SMEAGOL: minL =   0.00000, maxR =   0.00000
   scf:   36     -157.875118     -157.876967     -157.876967  0.000491  0.000000  0.002700
SMEAGOL: average =  -0.02938, shift =  -0.02939, count =  11664
SMEAGOL: minL =   0.00000, maxR =   0.00000
   scf:   37     -157.877647     -157.877307     -157.877307  0.000199  0.000000  0.002670
SMEAGOL: average =  -0.02938, shift =  -0.02939, count =  11664
SMEAGOL: minL =   0.00000, maxR =   0.00000
   scf:   38     -157.877955     -157.877631     -157.877631  0.000256  0.000000  0.001880
SMEAGOL: average =  -0.02938, shift =  -0.02939, count =  11664
SMEAGOL: minL =   0.00000, maxR =   0.00000
   scf:   39     -157.877749     -157.877690     -157.877690  0.000186  0.000000  0.001128
SMEAGOL: average =  -0.02938, shift =  -0.02939, count =  11664
SMEAGOL: minL =   0.00000, maxR =   0.00000
   scf:   40     -157.877624     -157.877657     -157.877657  0.000195  0.000000  0.000025
SMEAGOL: average =  -0.02938, shift =  -0.02939, count =  11664
SMEAGOL: minL =   0.00000, maxR =   0.00000
   scf:   41     -157.877663     -157.877660     -157.877660  0.000004  0.000000  0.000012

SCF Convergence by DM+H criterion
max |DM_out - DM_in|         :     0.0000040360
max |H_out - H_in|      (eV) :     0.0000118789
SCF cycle converged after 41 iterations

Using DM_out to compute the final energy and forces
No. of atoms with KB's overlaping orbs in proc 0. Max # of overlaps:       9       3
SMEAGOL: average =  -0.02938, shift =  -0.02939, count =  11664
SMEAGOL: minL =   0.00000, maxR =   0.00000

SMEAGOL: InitTransmRange =  -0.73497988D+00, FinalTransmRange =   0.73497988D+00
SMEAGOL: trcde =  0.00000D+00, NeneT =   800
SMEAGOL: Ef =  -0.21342614D+00, temp =   0.19000693D-02
SMEAGOL: deltaimagtrc =   0.00000000D+00

siesta: E_KS(eV) =             -157.8777

siesta: E_KS - E_eggbox =      -157.8777

siesta: Atomic forces (eV/Ang):
     1   -0.000000    0.000000************
     2   -0.000000   -0.000000************
     3   -0.000000    0.000000    0.074800
     4   -0.000000   -0.000000    0.048287
     5   -0.000000    0.000000   -0.155028
     6   -0.000000   -0.000000    0.034623
     7   -0.000000   -0.000000   -0.226447
     8   -0.000000    0.000000    0.347037
     9   -0.000000    0.000000   -0.074522
    10   -0.000000    0.000000   -0.053891
    11    0.000000    0.000000    0.014358
    12   -0.000000    0.000000    0.068723
----------------------------------------
   Tot   -0.000000    0.000000    0.077940
----------------------------------------
   Max************
   Res    Infinity    sqrt( Sum f_i^2 / 3N )
----------------------------------------
   Max************    constrained

Stress-tensor-Voigt (kbar):       -0.00       -0.00************       -0.00       -0.00       -0.00
(Free)E + p*V (eV/cell)**************
Target enthalpy (eV/cell)     -157.8777

coxmol: Writing XMOL coordinates into file 0V.xyz                                                              

siesta: Program's energy decomposition (eV):
siesta: Ebs     =       -42.766082
siesta: Eions   =       132.671799
siesta: Ena     =        63.210770
siesta: Ekin    =        25.918761
siesta: Enl     =        21.108596
siesta: Eso     =         0.000000
siesta: Eldau   =         0.000000
siesta: DEna    =        -0.584220
siesta: DUscf   =         0.023560
siesta: DUext   =         0.000000
siesta: Enegf   =         0.000000
siesta: Exc     =      -134.883328
siesta: eta*DQ  =         0.000000
siesta: Emadel  =         0.000000
siesta: Emeta   =         0.000000
siesta: Emolmec =         0.000000
siesta: Ekinion =         0.000000
siesta: Eharris =      -157.877663
siesta: Etot    =      -157.877660
siesta: FreeEng =      -157.877660

siesta: Final energy (eV):
siesta:  Band Struct. =     -42.766082
siesta:       Kinetic =      25.918761
siesta:       Hartree =      41.014397
siesta:       Eldau   =       0.000000
siesta:       Eso     =       0.000000
siesta:    Ext. field =       0.000000
siesta:       Enegf   =       0.000000
siesta:   Exch.-corr. =    -134.883328
siesta:  Ion-electron =     -90.774336
siesta:       Ion-ion =       0.846846
siesta:       Ekinion =       0.000000
siesta:         Total =    -157.877660
siesta:         Fermi =       0.000000

siesta: Atomic forces (eV/Ang):
siesta:      1   -0.000000    0.000000************
siesta:      2   -0.000000   -0.000000************
siesta:      3   -0.000000    0.000000    0.074800
siesta:      4   -0.000000   -0.000000    0.048287
siesta:      5   -0.000000    0.000000   -0.155028
siesta:      6   -0.000000   -0.000000    0.034623
siesta:      7   -0.000000   -0.000000   -0.226447
siesta:      8   -0.000000    0.000000    0.347037
siesta:      9   -0.000000    0.000000   -0.074522
siesta:     10   -0.000000    0.000000   -0.053891
siesta:     11    0.000000    0.000000    0.014358
siesta:     12   -0.000000    0.000000    0.068723
siesta: ----------------------------------------
siesta:    Tot   -0.000000    0.000000    0.077940

siesta: Stress tensor (static) (eV/Ang**3):
siesta:    -0.000001   -0.000000   -0.000000
siesta:    -0.000000   -0.000001   -0.000000
siesta:    -0.000000   -0.000000************

siesta: Cell volume =       5184.000000 Ang**3

siesta: Pressure (static):
siesta:                Solid            Molecule  Units
siesta: ****************************************  Ry/Bohr**3
siesta: ****************************************  eV/Ang**3
siesta: ****************************************  kBar
(Free)E+ p_basis*V_orbitals  =        -153.502758
(Free)Eharris+ p_basis*V_orbitals  =        -153.502761

siesta: Electric dipole (a.u.)  =    0.000000    0.000000    0.000000
siesta: Electric dipole (Debye) =    0.000000    0.000000    0.000000
SMEAGOL: average =   4.00124, shift =  -0.02939, count =  11664
SMEAGOL: minL =   0.00000, maxR =   0.00000

dhscf: Vacuum level (max, mean) =    3.728127  -62.464349 eV
 
>> End of run:   1-NOV-2023  17:12:50
Job completed
