Siesta Version  : trunk-761--smeagol-80
Architecture    : thomas-intel2017update1-intelmpi-mkl
Compiler version: ifort (IFORT) 18.0.3 20180410
Compiler flags  : mpif90 -O2  -fPIC -g -ftree-vectorize -xHost
PP flags        : -DFC_HAVE_ABORT -DMPI
Libraries       :   -lmkl_scalapack_lp64 -lmkl_blacs_intelmpi_lp64 -lmkl_intel_lp64 -lmkl_sequeential -lmkl_core
Directory       : /lustre/scratch/mmm1169/work/cp2k-smeagol-examples/li-chain/siesta4-smeagol/transmission/kpoints-1-1-20
PARALLEL version

* Running on 2 nodes in parallel
>> Start of run:   1-NOV-2023  17:12:50

                           ***********************       
                           *  WELCOME TO SIESTA  *       
                           ***********************       

reinit: Reading from standard input
reinit: Dumped input in INPUT_TMP.09743
************************** Dump of input data file ****************************
SystemName                   1V
SystemLabel                     1V              # Short name for naming files
NumberOfAtoms    12
NumberOfSpecies                 1               # Number of species
PAO.BasisType                   split
%block ChemicalSpeciesLabel
  1   3  Li
%endblock ChemicalSpeciesLabel
%block PAO.Basis
Li   1
n=2 0 1
0.0
1.0
%endblock PAO.Basis
%block PS.lmax
 Li   1
%endblock PS.lmax
LatticeConstant 1.000 Ang
%block LatticeVectors
  12.0    0.000   0.000   1
  0.000  12.0   0.000   1
  0.000   0.000     36.0 1
%endblock LatticeVectors
AtomicCoordinatesFormat Ang
%block AtomicCoordinatesAndAtomicSpecies
0.0 0.0 0.0 1 Li
0.0 0.0 3.0 1 Li
0.0 0.0 6.0 1 Li
0.0 0.0 9.0 1 Li
0.0 0.0 12.0 1 Li
0.0 0.0 15.0 1 Li
0.0 0.0 18.0 1 Li
0.0 0.0 21.0 1 Li
0.0 0.0 24.0 1 Li
0.0 0.0 27.0 1 Li
0.0 0.0 30.0 1 Li
0.0 0.0 33.0 1 Li
%endblock AtomicCoordinatesAndAtomicSpecies
%block kgrid_Monkhorst_Pack
  1   0   0     0.0
  0   1   0     0.0
  0   0   1     0.0
%endblock kgrid_Monkhorst_Pack
xc.functional		LDA		# 'LDA', 'GGA'
xc.authors 	 		CA		# 'CA'='PZ', 'PW92', 'PBE'
SpinPolarized			F		# 'T', 'F'		
#FixSpin           F
#TotalSpin        0.0
NonCollinearSpin		F		# 'T', 'F'
MeshCutoff 	 		    200 Ry		# Equivalent plane wave cutoff for the grid
MaxSCFIterations                10000                2                10000                10000		10000
DM.MixingWeight			0.1
DM.NumberPulay			4	# Pulay convergency accelerator
DM.MixSCF1			    T
MixHamiltonian      T
DM.PulayOnFile			F		# Store in memory ('F') or in files ('T')
#DM.NumberKick         30
#DM.KickMixingWeight   0.1
DM.Tolerance 		1.0E-4
NeglNonOverlapInt		F		# 'F'=do not neglect
SolutionMethod			diagon
ElectronicTemperature		300 K		# Default value
DM.UseSaveDM 			T
#MD.UseSaveXV			T
#MD.UseSaveCG			T
WriteForces      T
WriteCoorXmol			T		# Write Atoms coordinates
SaveElectrostaticPotential      T
#SaveHS				T		# Save the Hamiltonian and Overlap matrices
SaveRho				T		# Save the valence pseudocharge density
#SaveDeltaRho			T
#WriteDenchar			T		# Write Denchar output
WriteMullikenPop		0 #write mulliken population of aromic and orbital charges
#-----
#smeagol
#-----
# Perform a transport calculation
EMTransport              T
# Set number of energy points for integrals
NEnergReal               64
# Set bias range
VInitial             1 eV
VFinal               1 eV
NIVPoints                0
# General variables
Delta                    1e-4
EnergLowestBound    -100.0 eV
# Print transmission coefficient
TrCoefficients           T
InitTransmRange      -10.0 eV
FinalTransmRange      10.0 eV
NTransmPoints            800
TRC.EMDOS                T
TRC.LeadsDOS             T
# Matching of Hartree potential with the leads
HartreeLeadsBottom  -0.39982218 eV
%block SaveBiasSteps
 0
%endblock SaveBiasSteps
************************** End of input data file *****************************

reinit: -----------------------------------------------------------------------
reinit: System Name: 1V
reinit: -----------------------------------------------------------------------
reinit: System Label: 1V
reinit: -----------------------------------------------------------------------

initatom: Reading input for the pseudopotentials and atomic orbitals ----------
Species number:   1 Atomic number:    3 Label: Li
 
Ground state valence configuration:   2s01
Reading pseudopotential information in formatted form from Li.psf

Valence configuration for pseudopotential generation:
2s( 1.00) rc: 2.26
2p( 0.00) rc: 2.26
3d( 0.00) rc: 2.59
4f( 0.00) rc: 2.59
relmxkb: Read Max KB Ang. Momentum=    1 for species Li

<basis_specs>
===============================================================================
Li                   Z=   3    Mass=  6.9400        Charge= 0.17977+309
Lmxo=0 Lmxkb= 1    BasisType=split      Semic=F
L=0  Nsemic=0  Cnfigmx=2
          i=1  nzeta=1  polorb=0  (2s)
            splnorm:   0.15000    
               vcte:    0.0000    
               rinn:    0.0000    
               qcoe:    0.0000    
               qyuk:    0.0000    
               qwid:   0.10000E-01
                rcs:    0.0000    
            lambdas:    1.0000    
-------------------------------------------------------------------------------
L=0  Nkbl=1  erefs: 0.17977+309
L=1  Nkbl=1  erefs: 0.17977+309
===============================================================================
</basis_specs>

atom: Called for Li                    (Z =   3)

read_vps: Pseudopotential generation method:
read_vps: ATM3      Troullier-Martins                       
Total valence charge:    1.00000

read_vps: Pseudopotential includes a core correction:
read_vps: Pseudo-core for xc-correction

xc_check: Exchange-correlation functional:
xc_check: Ceperley-Alder
xc_check: WARNING: Pseudopotential generated with GGA PBE functional
V l=0 = -2*Zval/r beyond r=  2.4014
V l=1 = -2*Zval/r beyond r=  2.4014
All V_l potentials equal beyond r=  2.2001
This should be close to max(r_c) in ps generation
All pots = -2*Zval/r beyond r=  2.4014

VLOCAL1: 99.0% of the norm of Vloc inside      8.968 Ry
VLOCAL1: 99.9% of the norm of Vloc inside     20.437 Ry
atom: Maximum radius for 4*pi*r*r*local-pseudopot. charge    2.55631
atom: Maximum radius for r*vlocal+2*Zval:    2.17278

KBgen: Kleinman-Bylander projectors: 
GHOST: No ghost state for L =  0
   l= 0   rc=  2.721230   el= -0.211995   Ekb=  1.936384   kbcos=  0.226371
GHOST: No ghost state for L =  1
   l= 1   rc=  2.860793   el= -0.081473   Ekb= -0.871273   kbcos= -0.142848

KBgen: Total number of  Kleinman-Bylander projectors:    4
atom: -------------------------------------------------------------------------

atom: SANKEY-TYPE ORBITALS:

SPLIT: Orbitals with angular momentum L= 0

SPLIT: Basis orbitals for state 2s

SPLIT: PAO cut-off radius determined from an
SPLIT: energy shift=  0.020000 Ry

   izeta = 1
                 lambda =    1.000000
                     rc =    7.777862
                 energy =   -0.192109
                kinetic =    0.194479
    potential(screened) =   -0.386588
       potential(ionic) =   -0.562300
atom: Total number of Sankey-type orbitals:  1

atm_pop: Valence configuration (for local Pseudopot. screening):
 2s( 1.00)                                                            
Vna: chval, zval:    1.00000   1.00000

Vna:  Cut-off radius for the neutral-atom potential:   7.777862
comcore: Pseudo-core radius Rcore=  3.450946

atom: _________________________________________________________________________

prinput: Basis input ----------------------------------------------------------

PAO.BasisType split     

%block ChemicalSpeciesLabel
    1    3 Li                      # Species index, atomic number, species label
%endblock ChemicalSpeciesLabel

%block PAO.Basis                 # Define Basis set
Li                    1                    # Species label, number of l-shells
 n=2   0   1                         # n, l, Nzeta 
   7.778   
   1.000   
%endblock PAO.Basis

prinput: ----------------------------------------------------------------------

coor:   Atomic-coordinates input format  =     Cartesian coordinates
coor:                                          (in Angstroms)

siesta: Atomic coordinates (Bohr) and species
siesta:      0.00000   0.00000   0.00000  1        1
siesta:      0.00000   0.00000   5.66918  1        2
siesta:      0.00000   0.00000  11.33836  1        3
siesta:      0.00000   0.00000  17.00754  1        4
siesta:      0.00000   0.00000  22.67672  1        5
siesta:      0.00000   0.00000  28.34590  1        6
siesta:      0.00000   0.00000  34.01508  1        7
siesta:      0.00000   0.00000  39.68426  1        8
siesta:      0.00000   0.00000  45.35345  1        9
siesta:      0.00000   0.00000  51.02263  1       10
siesta:      0.00000   0.00000  56.69181  1       11
siesta:      0.00000   0.00000  62.36099  1       12

siesta: System type = chain     

initatomlists: Number of atoms, orbitals, and projectors:     12    12    48

coxmol: Writing XMOL coordinates into file 1V.xyz                                                              

SMEAGOL: ******************* SMEAGOL Simulation parameters ********************
SMEAGOL:
SMEAGOL:       The following are some of the SMEAGOL parameters of the
SMEAGOL:       simulation. A complete list of the parameters used,
SMEAGOL:       including default values, can be found in file fdf.log.
SMEAGOL:
redata: Transport in extended molecule                =      T
redata: Molecular dynamics with transport             =      F
redata: # of points in real energy axis integral      =     64
redata: # of contour points in semi-circle            =     34
redata: # of contour points in line region            =     20
redata: # of poles in the Fermi function              =      5
redata: Initial value of the bias potential           =      0.0735 Ry
redata: Final value of the bias potential             =      0.0735 Ry
redata: # of bias potential points                    =      0
redata: Small imaginary part                          =      0.00010
redata: Lower bound for the contour integral          =     -7.3498 Ry
redata: 1 = Leads with different spin                 =      0
redata: Atom of the lead where bias slope starts      =      1
redata: Atom of the lead where bias slope ends        =     12
redata: # of bulk slices to include in EM             =      1
redata: Calculate transmission coefficients           =      T
redata: Thresholds at generalized SVD                 =      0.000000001000
redata: Compute full system DOS and PDOS              =      F
redata: Invert only central region                    =      T
redata: Write leads H and S matrices at .HSL          =      F
redata: Set bulk transversal cell                     =      F
redata: Calculate Forces                              =      F
redata: Init transport                                =      F
redata: Write converged DM (at bias/MD selected step) =      F
redata: Hartree Leads Left                            =      0.0000 Bohr
redata: Hartree Leads Right                           =      0.0000 Bohr
redata: Hartree Leads Bottom                          =     -0.0294 Ry
redata: Periodic leads in perpendicular directions    =      F
redata: LDA+U calculation?                            =      F
redata: DMFT calculation?                            =      F
redata: mix de Hamiltonian            =      T
redata: ***********************************************************************

siesta: ******************** Simulation parameters ****************************
siesta:
siesta: The following are some of the parameters of the simulation.
siesta: A complete list of the parameters used, including default values,
siesta: can be found in file out.fdf
siesta:
redata: Spin configuration                          = none
redata: Number of spin components                   = 1
redata: Time-Reversal Symmetry                      = T
redata: Spin-spiral                                 = F
redata: Long output                                 =   F
redata: Number of Atomic Species                    =        1
redata: Charge density info will appear in .RHO file
redata: Write Mulliken Pop.                         = NO
redata: Matel table size (NRTAB)                    =     1024
redata: Mesh Cutoff                                 =   200.0000 Ry
redata: Net charge of the system                    =     0.0000 |e|
redata: Min. number of SCF Iter                     =        0
redata: Max. number of SCF Iter                     =    10000
redata: SCF convergence failure will abort job
redata: SCF mix quantity                            = Hamiltonian
redata: Mix DM or H after convergence               =   F
redata: Recompute H after scf cycle                 =   F
redata: Mix DM in first SCF step                    =   T
redata: Write Pulay info on disk                    =   F
redata: New DM Mixing Weight                        =     0.1000
redata: New DM Occupancy tolerance                  = 0.000000000001
redata: No kicks to SCF
redata: DM Mixing Weight for Kicks                  =     0.5000
redata: Require Harris convergence for SCF          =   F
redata: Harris energy tolerance for SCF             =     0.000100 eV
redata: Require DM convergence for SCF              =   T
redata: DM tolerance for SCF                        =     0.000100
redata: Require EDM convergence for SCF             =   F
redata: EDM tolerance for SCF                       =     0.001000 eV
redata: Require H convergence for SCF               =   T
redata: Hamiltonian tolerance for SCF               =     0.001000 eV
redata: Require (free) Energy convergence for SCF   =   F
redata: (free) Energy tolerance for SCF             =     0.000100 eV
redata: Using Saved Data (generic)                  =   F
redata: Use continuation files for DM               =   T
redata: Neglect nonoverlap interactions             =   F
redata: Method of Calculation                       = Diagonalization
redata: Electronic Temperature                      =   299.9978 K
redata: Fix the spin of the system                  =   F
redata: Max. number of TDED Iter                    =        1
redata: Number of TDED substeps                     =        3
redata: Dynamics option                             = Single-point calculation
mix.SCF: Pulay mixing                            = Pulay
mix.SCF:    Variant                              = stable
mix.SCF:    History steps                        = 4
mix.SCF:    Linear mixing weight                 =     0.100000
mix.SCF:    Mixing weight                        =     0.100000
mix.SCF:    SVD condition                        = 0.1000E-07
redata: ***********************************************************************

%block SCF.Mixers
  Pulay
%endblock SCF.Mixers

%block SCF.Mixer.Pulay
  # Mixing method
  method pulay
  variant stable

  # Mixing options
  weight 0.1000
  weight.linear 0.1000
  history 4
%endblock SCF.Mixer.Pulay
 
DM_history_depth set to one: no extrapolation allowed by default for geometry relaxation
Size of DM history Fstack: 1
Total number of electrons:    12.000000
Total ionic charge:    12.000000

* ProcessorY, Blocksize:    1   7


* Orbital distribution balance (max,min):     7     5

 Kpoints in:            1 . Kpoints trimmed:            1

siesta: k-grid: Number of k-points =         1
siesta: k-points from Monkhorst-Pack grid
siesta: k-cutoff (effective) =     6.000 Ang
siesta: k-point supercell and displacements
siesta: k-grid:    1   0   0      0.000
siesta: k-grid:    0   1   0      0.000
siesta: k-grid:    0   0   1      0.000
 
diag: Algorithm                                     = D&C
diag: Parallel over k                               =   F
diag: Use parallel 2D distribution                  =   F
diag: Parallel block-size                           = 7
diag: Parallel distribution                         =     1 x     2
diag: Used triangular part                          = Lower
diag: Absolute tolerance                            =  0.100E-15
diag: Orthogonalization factor                      =  0.100E-05
diag: Memory factor                                 =  1.0000
 
 
ts: **************************************************************
ts: Save H and S matrices                           =    F
ts: Save DM and EDM matrices                        =    F
ts: Fix Hartree potential                           =    F
ts: Only save the overlap matrix S                  =    F
ts: **************************************************************
 
************************ Begin: TS CHECKS AND WARNINGS ************************
************************ End: TS CHECKS AND WARNINGS **************************


                     ====================================
SMEAGOL                 Bias step =    0, V =  0.073 Ry
                        Single-point calculation
                     ====================================

outcell: Unit cell vectors (Ang):
       12.000000    0.000000    0.000000
        0.000000   12.000000    0.000000
        0.000000    0.000000   36.000000

outcell: Cell vector modules (Ang)   :   12.000000   12.000000   36.000000
outcell: Cell angles (23,13,12) (deg):     90.0000     90.0000     90.0000
outcell: Cell volume (Ang**3)        :   5184.0000
<dSpData1D:S at geom step 0
  <sparsity:sparsity for geom step 0
    nrows_g=12 nrows=7 sparsity=.2431 nnzs=35, refcount: 7>
  <dData1D:(new from dSpData1D) n=35, refcount: 1>
refcount: 1>
new_DM -- step:     1
Initializing Density Matrix...
 
Attempting to read DM from file... Failed...
DM filled with atomic data:
<dSpData2D:DM initialized from atoms
  <sparsity:sparsity for geom step 0
    nrows_g=12 nrows=7 sparsity=.2431 nnzs=35, refcount: 8>
  <dData2D:DM n=35 m=1, refcount: 1>
refcount: 1>
No. of atoms with KB's overlaping orbs in proc 0. Max # of overlaps:       9       3
New grid distribution:   1
           1       1:   54    1:   54    1:   80
           2       1:   54    1:   54   81:  160

InitMesh: MESH =   108 x   108 x   320 =     3732480
InitMesh: (bp) =    54 x    54 x   160 =      466560
InitMesh: Mesh cutoff (required, used) =   200.000   218.372 Ry
ExtMesh (bp) on 0 =   130 x   130 x   156 =     2636400
New grid distribution:   2
           1       1:   54    1:   54    1:   80
           2       1:   54    1:   54   81:  160
New grid distribution:   3
           1       1:   54    1:   54    1:   80
           2       1:   54    1:   54   81:  160
Setting up quadratic distribution...
ExtMesh (bp) on 0 =   130 x   130 x   156 =     2636400
PhiOnMesh: Number of (b)points on node 0 =               233280
PhiOnMesh: nlist on node 0 =               167490
SMEAGOL: average =  -0.02879, shift =  -0.02939, count =  11664
SMEAGOL: minL =   0.00000, maxR =   0.00000

SMEAGOL: Integral method for real-axis = Traditional 
 calling get_energy_points: integral type: gauss-legendre 
SMEAGOL: average =  -0.01124, shift =  -0.02939, count =  11664
SMEAGOL: minL =   0.00000, maxR =   0.00000

siesta: Program's energy decomposition (eV):
siesta: Ebs     =       -46.169715
siesta: Eions   =       132.671799
siesta: Ena     =        63.210770
siesta: Ekin    =        25.800441
siesta: Enl     =        20.676659
siesta: Eso     =         0.000000
siesta: Eldau   =         0.000000
siesta: DEna    =        -0.029635
siesta: DUscf   =         0.084203
siesta: DUext   =         0.000000
siesta: Enegf   =         0.000000
siesta: Exc     =      -133.857545
siesta: eta*DQ  =         0.000000
siesta: Emadel  =         0.000000
siesta: Emeta   =         0.000000
siesta: Emolmec =         0.000000
siesta: Ekinion =         0.000000
siesta: Eharris =      -161.523658
siesta: Etot    =      -156.786905
siesta: FreeEng =      -156.786905

        iscf     Eharris(eV)        E_KS(eV)     FreeEng(eV)     dDmax    Ef(eV) dHmax(eV)
   scf:    1     -161.523658     -156.786905     -156.786905  0.416382  0.000000  0.878864
timer: Routine,Calls,Time,% = IterSCF        1       1.003  59.34
SMEAGOL: average =   0.18367, shift =  -0.02939, count =  11664
SMEAGOL: minL =   0.00000, maxR =   0.00000
   scf:    2      -95.026510     -132.545891     -132.545891  1.656619  0.000000 14.954453
SMEAGOL: average =   0.28068, shift =  -0.02939, count =  11664
SMEAGOL: minL =   0.00000, maxR =   0.00000
   scf:    3     -122.672312     -130.083390     -130.083390  0.548979  0.000000 16.888422
SMEAGOL: average =   0.56768, shift =  -0.02939, count =  11664
SMEAGOL: minL =   0.00000, maxR =   0.00000
   scf:    4      -59.120813     -108.318921     -108.318921  2.400281  0.000000 23.582079
SMEAGOL: average =  -0.15551, shift =  -0.02939, count =  11664
SMEAGOL: minL =   0.00000, maxR =   0.00000
   scf:    5     -112.505823     -145.189774     -145.189774  2.510876  0.000000 15.448656
SMEAGOL: average =  -0.18982, shift =  -0.02939, count =  11664
SMEAGOL: minL =   0.00000, maxR =   0.00000
   scf:    6     -143.582694     -144.741199     -144.741199  0.439464  0.000000 17.349079
SMEAGOL: average =  -0.20270, shift =  -0.02939, count =  11664
SMEAGOL: minL =   0.00000, maxR =   0.00000
   scf:    7     -150.144229     -147.606405     -147.606405  0.281364  0.000000 16.433418
SMEAGOL: average =   0.13380, shift =  -0.02939, count =  11664
SMEAGOL: minL =   0.00000, maxR =   0.00000
   scf:    8     -115.848395     -148.257714     -148.257714  2.405164  0.000000 10.066263
SMEAGOL: average =  -0.21689, shift =  -0.02939, count =  11664
SMEAGOL: minL =   0.00000, maxR =   0.00000
   scf:    9     -102.463114     -145.043676     -145.043676  2.595032  0.000000 22.518560
SMEAGOL: average =   0.31781, shift =  -0.02939, count =  11664
SMEAGOL: minL =   0.00000, maxR =   0.00000
   scf:   10      -42.257142     -129.107904     -129.107904  2.689739  0.000000 21.591771
SMEAGOL: average =   0.14865, shift =  -0.02939, count =  11664
SMEAGOL: minL =   0.00000, maxR =   0.00000
   scf:   11     -162.234144     -148.530088     -148.530088  1.037048  0.000000 10.253733
SMEAGOL: average =  -0.04456, shift =  -0.02939, count =  11664
SMEAGOL: minL =   0.00000, maxR =   0.00000
   scf:   12     -151.465324     -153.829832     -153.829832  1.251395  0.000000  8.404413
SMEAGOL: average =   0.16912, shift =  -0.02939, count =  11664
SMEAGOL: minL =   0.00000, maxR =   0.00000
   scf:   13     -128.162627     -145.820133     -145.820133  1.002091  0.000000 11.628302
SMEAGOL: average =   0.09621, shift =  -0.02939, count =  11664
SMEAGOL: minL =   0.00000, maxR =   0.00000
   scf:   14     -155.257386     -151.750345     -151.750345  0.691238  0.000000  7.169828
SMEAGOL: average =  -0.06261, shift =  -0.02939, count =  11664
SMEAGOL: minL =   0.00000, maxR =   0.00000
   scf:   15     -161.294822     -158.307210     -158.307210  0.608651  0.000000  2.284405
SMEAGOL: average =  -0.02427, shift =  -0.02939, count =  11664
SMEAGOL: minL =   0.00000, maxR =   0.00000
   scf:   16     -156.101737     -157.302901     -157.302901  0.164808  0.000000  1.356223
SMEAGOL: average =  -0.02616, shift =  -0.02939, count =  11664
SMEAGOL: minL =   0.00000, maxR =   0.00000
   scf:   17     -155.415552     -156.799736     -156.799736  0.443556  0.000000  1.202690
SMEAGOL: average =  -0.02833, shift =  -0.02939, count =  11664
SMEAGOL: minL =   0.00000, maxR =   0.00000
   scf:   18     -157.474117     -157.217784     -157.217784  0.219422  0.000000  0.529518
SMEAGOL: average =  -0.02760, shift =  -0.02939, count =  11664
SMEAGOL: minL =   0.00000, maxR =   0.00000
   scf:   19     -157.445207     -157.340715     -157.340715  0.055338  0.000000  0.301269
SMEAGOL: average =   0.00311, shift =  -0.02939, count =  11664
SMEAGOL: minL =   0.00000, maxR =   0.00000
   scf:   20     -155.555705     -156.559082     -156.559082  0.091027  0.000000  1.247817
SMEAGOL: average =  -0.02462, shift =  -0.02939, count =  11664
SMEAGOL: minL =   0.00000, maxR =   0.00000
   scf:   21     -158.008441     -157.310164     -157.310164  0.071166  0.000000  0.133083
SMEAGOL: average =  -0.02449, shift =  -0.02939, count =  11664
SMEAGOL: minL =   0.00000, maxR =   0.00000
   scf:   22     -157.312489     -157.311958     -157.311958  0.005621  0.000000  0.123398
SMEAGOL: average =  -0.02437, shift =  -0.02939, count =  11664
SMEAGOL: minL =   0.00000, maxR =   0.00000
   scf:   23     -157.302059     -157.306966     -157.306966  0.008042  0.000000  0.065636
SMEAGOL: average =  -0.02444, shift =  -0.02939, count =  11664
SMEAGOL: minL =   0.00000, maxR =   0.00000
   scf:   24     -157.316037     -157.311283     -157.311283  0.010647  0.000000  0.039407
SMEAGOL: average =  -0.02480, shift =  -0.02939, count =  11664
SMEAGOL: minL =   0.00000, maxR =   0.00000
   scf:   25     -157.346180     -157.328663     -157.328663  0.012549  0.000000  0.014580
SMEAGOL: average =  -0.02484, shift =  -0.02939, count =  11664
SMEAGOL: minL =   0.00000, maxR =   0.00000
   scf:   26     -157.327800     -157.328222     -157.328222  0.001177  0.000000  0.008299
SMEAGOL: average =  -0.02479, shift =  -0.02939, count =  11664
SMEAGOL: minL =   0.00000, maxR =   0.00000
   scf:   27     -157.319743     -157.324008     -157.324008  0.002142  0.000000  0.009227
SMEAGOL: average =  -0.02480, shift =  -0.02939, count =  11664
SMEAGOL: minL =   0.00000, maxR =   0.00000
   scf:   28     -157.323252     -157.323626     -157.323626  0.000608  0.000000  0.004874
SMEAGOL: average =  -0.02479, shift =  -0.02939, count =  11664
SMEAGOL: minL =   0.00000, maxR =   0.00000
   scf:   29     -157.321177     -157.322401     -157.322401  0.000477  0.000000  0.002036
SMEAGOL: average =  -0.02478, shift =  -0.02939, count =  11664
SMEAGOL: minL =   0.00000, maxR =   0.00000
   scf:   30     -157.320921     -157.321666     -157.321666  0.000419  0.000000  0.001546
SMEAGOL: average =  -0.02477, shift =  -0.02939, count =  11664
SMEAGOL: minL =   0.00000, maxR =   0.00000
   scf:   31     -157.321233     -157.321454     -157.321454  0.000167  0.000000  0.001554
SMEAGOL: average =  -0.02477, shift =  -0.02939, count =  11664
SMEAGOL: minL =   0.00000, maxR =   0.00000
   scf:   32     -157.320914     -157.321190     -157.321190  0.000351  0.000000  0.000850
SMEAGOL: average =  -0.02478, shift =  -0.02939, count =  11664
SMEAGOL: minL =   0.00000, maxR =   0.00000
   scf:   33     -157.321164     -157.321172     -157.321172  0.000085  0.000000  0.000365

SCF Convergence by DM+H criterion
max |DM_out - DM_in|         :     0.0000853290
max |H_out - H_in|      (eV) :     0.0003648546
SCF cycle converged after 33 iterations

Using DM_out to compute the final energy and forces
No. of atoms with KB's overlaping orbs in proc 0. Max # of overlaps:       9       3
SMEAGOL: average =  -0.02478, shift =  -0.02939, count =  11664
SMEAGOL: minL =   0.00000, maxR =   0.00000

SMEAGOL: InitTransmRange =  -0.73497988D+00, FinalTransmRange =   0.73497988D+00
SMEAGOL: trcde =  0.00000D+00, NeneT =   800
SMEAGOL: Ef =  -0.21342614D+00, temp =   0.19000693D-02
SMEAGOL: deltaimagtrc =   0.00000000D+00

siesta: E_KS(eV) =             -157.3212

siesta: E_KS - E_eggbox =      -157.3212

siesta: Atomic forces (eV/Ang):
     1   -0.000000    0.000000   -0.180210
     2   -0.000000   -0.000000   -0.038025
     3   -0.000000    0.000000    1.443367
     4   -0.000000    0.000000    0.395988
     5   -0.000000   -0.000000   -0.051967
     6   -0.000000    0.000000   -0.264120
     7   -0.000000   -0.000000    2.474496
     8    0.000000    0.000000   -2.470956
     9   -0.000000   -0.000000   -1.379954
    10   -0.000000    0.000000    0.059925
    11   -0.000000    0.000000   -0.087982
    12   -0.000000    0.000000    0.123795
----------------------------------------
   Tot   -0.000000   -0.000000    0.024358
----------------------------------------
   Max    2.474496
   Res    0.677130    sqrt( Sum f_i^2 / 3N )
----------------------------------------
   Max    2.474496    constrained

Stress-tensor-Voigt (kbar):       -0.00       -0.00       18.77       -0.00       -0.00        0.00
(Free)E + p*V (eV/cell)     -177.5553
Target enthalpy (eV/cell)     -157.3212

coxmol: Writing XMOL coordinates into file 1V.xyz                                                              

siesta: Program's energy decomposition (eV):
siesta: Ebs     =       -43.819346
siesta: Eions   =       132.671799
siesta: Ena     =        63.210770
siesta: Ekin    =        26.120118
siesta: Enl     =        20.914001
siesta: Eso     =         0.000000
siesta: Eldau   =         0.000000
siesta: DEna    =        -0.383471
siesta: DUscf   =         0.030420
siesta: DUext   =         0.000000
siesta: Enegf   =         0.000000
siesta: Exc     =      -134.541212
siesta: eta*DQ  =         0.000000
siesta: Emadel  =         0.000000
siesta: Emeta   =         0.000000
siesta: Emolmec =         0.000000
siesta: Ekinion =         0.000000
siesta: Eharris =      -157.321164
siesta: Etot    =      -157.321172
siesta: FreeEng =      -157.321172

siesta: Final energy (eV):
siesta:  Band Struct. =     -43.819346
siesta:       Kinetic =      26.120118
siesta:       Hartree =      40.551902
siesta:       Eldau   =       0.000000
siesta:       Eso     =       0.000000
siesta:    Ext. field =       0.000000
siesta:       Enegf   =       0.000000
siesta:   Exch.-corr. =    -134.541212
siesta:  Ion-electron =     -90.298827
siesta:       Ion-ion =       0.846846
siesta:       Ekinion =       0.000000
siesta:         Total =    -157.321172
siesta:         Fermi =       0.000000

siesta: Atomic forces (eV/Ang):
siesta:      1   -0.000000    0.000000   -0.180210
siesta:      2   -0.000000   -0.000000   -0.038025
siesta:      3   -0.000000    0.000000    1.443367
siesta:      4   -0.000000    0.000000    0.395988
siesta:      5   -0.000000   -0.000000   -0.051967
siesta:      6   -0.000000    0.000000   -0.264120
siesta:      7   -0.000000   -0.000000    2.474496
siesta:      8    0.000000    0.000000   -2.470956
siesta:      9   -0.000000   -0.000000   -1.379954
siesta:     10   -0.000000    0.000000    0.059925
siesta:     11   -0.000000    0.000000   -0.087982
siesta:     12   -0.000000    0.000000    0.123795
siesta: ----------------------------------------
siesta:    Tot   -0.000000   -0.000000    0.024358

siesta: Stress tensor (static) (eV/Ang**3):
siesta:    -0.000001   -0.000000    0.000000
siesta:    -0.000000   -0.000001   -0.000000
siesta:     0.000000   -0.000000    0.011712

siesta: Cell volume =       5184.000000 Ang**3

siesta: Pressure (static):
siesta:                Solid            Molecule  Units
siesta:          -0.00004251         -0.00002130  Ry/Bohr**3
siesta:          -0.00390318         -0.00195607  eV/Ang**3
siesta:          -6.25365805         -3.13399938  kBar
(Free)E+ p_basis*V_orbitals  =        -152.946270
(Free)Eharris+ p_basis*V_orbitals  =        -152.946262

siesta: Electric dipole (a.u.)  =    0.000000    0.000000   -0.000000
siesta: Electric dipole (Debye) =    0.000000    0.000000   -0.000000
SMEAGOL: average =   5.60938, shift =  -0.02939, count =  11664
SMEAGOL: minL =   0.00000, maxR =   0.00000

dhscf: Vacuum level (max, mean) =    1.613785  -86.825901 eV
 
>> End of run:   1-NOV-2023  17:13:10
Job completed
