ATOMS
H             3.25353201      5.72009504     18.92650888            -0.70681059     -0.01983001      0.00505559
H             3.25941157      5.72539283     19.68363138             0.70681059      0.01983001     -0.00505559
