ATOMS
H             3.25353201      5.72009504     18.92650888             0.70705972     -0.00685645     -0.00442040
H             3.25941157      5.72539283     19.68363138             0.70705972     -0.00685645     -0.00442040
