ATOMS
H             3.25353201      5.72009504     18.92650888            -0.00491545     -0.00506171     -0.70707158
H             3.25941157      5.72539283     19.68363138             0.00491545      0.00506171      0.70707158
