Siesta Version: ismeagol.1.0
Architecture  : thomas-intel2017update1-intelmpi-mkl
Compiler flags: mpif90 -O2 -fPIC -g -ftree-vectorize -xHost
PARALLEL version

* Running on   64 nodes in parallel
>> Start of run:   3-NOV-2023  11:45:02

                           ***********************       
                           *  WELCOME TO SIESTA  *       
                           ***********************       

reinit: Reading from standard input
************************** Dump of input data file ****************************
SystemName		     dft_wfn		# Descriptive name of the system
SystemLabel 			dft_wfn		# Short name for naming files
NumberOfAtoms    96
NumberOfSpecies			1               # Number of species
PAO.BasisType			split		
%block ChemicalSpeciesLabel
1 79 Au
%endblock ChemicalSpeciesLabel
%block PAO.Basis
  Au  2
n=6  0  1
6.500
1.00
n=5  2  1
5.850
1.00
%endblock PAO.Basis
%block PS.lmax
 Au   3
%endblock PS.lmax
LatticeConstant 1.000 Ang
%block LatticeVectors
   8.336     0.000   0.000	  1
  0.000    8.336     0.000   1
  0.000   0.000     33.926  1
%endblock LatticeVectors
AtomicCoordinatesFormat Ang
%block AtomicCoordinatesAndAtomicSpecies
0.0 0.0 0.0 1 Au
0.0 4.168 0.0 1 Au
2.084 2.084 0.0 1 Au
2.084 6.252 0.0 1 Au
4.168 0.0 0.0 1 Au
4.168 4.168 0.0 1 Au
6.252 2.084 0.0 1 Au
6.252 6.252 0.0 1 Au
0.0 2.084 2.084 1 Au
0.0 6.252 2.084 1 Au
2.084 0.0 2.084 1 Au
2.084 4.168 2.084 1 Au
4.168 2.084 2.084 1 Au
4.168 6.252 2.084 1 Au
6.252 0.0 2.084 1 Au
6.252 4.168 2.084 1 Au
0.0 0.0 4.168 1 Au
0.0 4.168 4.168 1 Au
2.084 2.084 4.168 1 Au
2.084 6.252 4.168 1 Au
4.168 0.0 4.168 1 Au
4.168 4.168 4.168 1 Au
6.252 2.084 4.168 1 Au
6.252 6.252 4.168 1 Au
0.0 2.084 6.252 1 Au
0.0 6.252 6.252 1 Au
2.084 0.0 6.252 1 Au
2.084 4.168 6.252 1 Au
4.168 2.084 6.252 1 Au
4.168 6.252 6.252 1 Au
6.252 0.0 6.252 1 Au
6.252 4.168 6.252 1 Au
0.0 0.0 8.336 1 Au
0.0 4.168 8.336 1 Au
2.084 2.084 8.336 1 Au
2.084 6.252 8.336 1 Au
4.168 0.0 8.336 1 Au
4.168 4.168 8.336 1 Au
6.252 2.084 8.336 1 Au
6.252 6.252 8.336 1 Au
0.0 2.084 10.42 1 Au
0.0 6.252 10.42 1 Au
2.084 0.0 10.42 1 Au
2.084 4.168 10.42 1 Au
4.168 2.084 10.42 1 Au
4.168 6.252 10.42 1 Au
6.252 0.0 10.42 1 Au
6.252 4.168 10.42 1 Au
0.0 0.0 21.422 1 Au
0.0 4.168 21.422 1 Au
2.084 2.084 21.422 1 Au
2.084 6.252 21.422 1 Au
4.168 0.0 21.422 1 Au
4.168 4.168 21.422 1 Au
6.252 2.084 21.422 1 Au
6.252 6.252 21.422 1 Au
0.0 2.084 23.506 1 Au
0.0 6.252 23.506 1 Au
2.084 0.0 23.506 1 Au
2.084 4.168 23.506 1 Au
4.168 2.084 23.506 1 Au
4.168 6.252 23.506 1 Au
6.252 0.0 23.506 1 Au
6.252 4.168 23.506 1 Au
0.0 0.0 25.59 1 Au
0.0 4.168 25.59 1 Au
2.084 2.084 25.59 1 Au
2.084 6.252 25.59 1 Au
4.168 0.0 25.59 1 Au
4.168 4.168 25.59 1 Au
6.252 2.084 25.59 1 Au
6.252 6.252 25.59 1 Au
0.0 2.084 27.674 1 Au
0.0 6.252 27.674 1 Au
2.084 0.0 27.674 1 Au
2.084 4.168 27.674 1 Au
4.168 2.084 27.674 1 Au
4.168 6.252 27.674 1 Au
6.252 0.0 27.674 1 Au
6.252 4.168 27.674 1 Au
0.0 0.0 29.758 1 Au
0.0 4.168 29.758 1 Au
2.084 2.084 29.758 1 Au
2.084 6.252 29.758 1 Au
4.168 0.0 29.758 1 Au
4.168 4.168 29.758 1 Au
6.252 2.084 29.758 1 Au
6.252 6.252 29.758 1 Au
0.0 2.084 31.842 1 Au
0.0 6.252 31.842 1 Au
2.084 0.0 31.842 1 Au
2.084 4.168 31.842 1 Au
4.168 2.084 31.842 1 Au
4.168 6.252 31.842 1 Au
6.252 0.0 31.842 1 Au
6.252 4.168 31.842 1 Au
%endblock AtomicCoordinatesAndAtomicSpecies 	
%block kgrid_Monkhorst_Pack
  2   0   0     0.0
  0   2   0     0.0
  0   0   1     0.0
%endblock kgrid_Monkhorst_Pack
xc.functional		LDA		# 'LDA', 'GGA'
xc.authors 	 		CA		# 'CA'='PZ', 'PW92', 'PBE'
SpinPolarized			F		# 'T', 'F'		
#FixSpin           F
#TotalSpin        0.0
NonCollinearSpin		F		# 'T', 'F'
MeshCutoff 	 		    200 Ry		# Equivalent plane wave cutoff for the grid
MaxSCFIterations		200
DM.MixingWeight			0.1
DM.NumberPulay			4	# Pulay convergency accelerator
DM.MixSCF1			    T
MixHamiltonian      T
DM.PulayOnFile			F		# Store in memory ('F') or in files ('T')
#DM.NumberKick         30
#DM.KickMixingWeight   0.1
DM.Tolerance 		1.0E-4
NeglNonOverlapInt		F		# 'F'=do not neglect
SolutionMethod			diagon
ElectronicTemperature		300 K		# Default value
DM.UseSaveDM 			T
#MD.UseSaveXV			T
#MD.UseSaveCG			T
WriteForces      T
WriteCoorXmol			T		# Write Atoms coordinates
SaveElectrostaticPotential      T
#SaveHS				T		# Save the Hamiltonian and Overlap matrices
SaveRho				T		# Save the valence pseudocharge density
#SaveDeltaRho			T
#WriteDenchar			T		# Write Denchar output
WriteMullikenPop		0 #write mulliken population of aromic and orbital charges
************************** End of input data file *****************************

reinit: -----------------------------------------------------------------------
reinit: System Name: dft_wfn
reinit: -----------------------------------------------------------------------
reinit: System Label: dft_wfn                                                     
reinit: -----------------------------------------------------------------------

initatom: Reading input for the pseudopotentials and atomic orbitals ----------
 Species number:            1  Label: Au Atomic number:          79
Ground state valence configuration:   6s01  5d10
Reading pseudopotential information in formatted form from Au.psf

Pseudopotential generated from a relativistic atomic calculation
There are spin-orbit pseudopotentials available
Spin-orbit interaction is not included in this calculation

Valence configuration for pseudopotential generation:
6s( 1.00) rc: 2.18
6p( 0.00) rc: 2.47
5d(10.00) rc: 1.79
5f( 0.00) rc: 2.00
relmxkb: Read Max KB Ang. Momentum=    3 for species Au
 Warning: Empty PAO shell. l =           1
 Will have a KB projector anyway...

<basis_specs>
===============================================================================
Au                   Z=  79    Mass=  196.97        Charge= 0.17977+309
Lmxo=2 Lmxkb= 3    BasisType=split      Semic=F
L=0  Nsemic=0  Cnfigmx=6
          n=1  nzeta=1  polorb=0
            splnorm:   0.15000    
               vcte:    0.0000    
               rinn:    0.0000    
                rcs:    6.5000    
            lambdas:    1.0000    
L=1  Nsemic=0  Cnfigmx=6
L=2  Nsemic=0  Cnfigmx=5
          n=1  nzeta=1  polorb=0
            splnorm:   0.15000    
               vcte:    0.0000    
               rinn:    0.0000    
                rcs:    5.8500    
            lambdas:    1.0000    
-------------------------------------------------------------------------------
L=0  Nkbl=1  erefs: 0.17977+309
L=1  Nkbl=1  erefs: 0.17977+309
L=2  Nkbl=1  erefs: 0.17977+309
L=3  Nkbl=1  erefs: 0.17977+309
===============================================================================
</basis_specs>

atom: Called for Au                    (Z =  79)

read_vps: Pseudopotential generation method:
read_vps: ATM3      Troullier-Martins                       
Total valence charge:   11.00000

read_vps: Pseudopotential includes a core correction:
read_vps: Pseudo-core for xc-correction

xc_check: Exchange-correlation functional:
xc_check: Ceperley-Alder
V l=0 = -2*Zval/r beyond r=  2.9833
V l=1 = -2*Zval/r beyond r=  2.9833
V l=2 = -2*Zval/r beyond r=  2.9833
V l=3 = -2*Zval/r beyond r=  2.9833
All V_l potentials equal beyond r=  2.4425
This should be close to max(r_c) in ps generation
All pots = -2*Zval/r beyond r=  2.9833

VLOCAL1: 99.0% of the norm of Vloc inside      7.276 Ry
VLOCAL1: 99.9% of the norm of Vloc inside     16.582 Ry
atom: Maximum radius for 4*pi*r*r*local-pseudopot. charge    2.94627
atom: Maximum radius for r*vlocal+2*Zval:    2.60007
GHOST: No ghost state for L =  0
GHOST: No ghost state for L =  1
GHOST: No ghost state for L =  2
GHOST: No ghost state for L =  3

KBgen: Kleinman-Bylander projectors: 
   l= 0   rc=  3.175745   el= -0.445638   Ekb=  5.072790   kbcos=  0.276607
   l= 1   rc=  3.256140   el= -0.066324   Ekb=  2.703235   kbcos=  0.227171
   l= 2   rc=  3.020861   el= -0.526103   Ekb= -4.704026   kbcos= -0.643795
   l= 3   rc=  3.466145   el=  0.003438   Ekb= -2.516122   kbcos= -0.010529

KBgen: Total number of  Kleinman-Bylander projectors:   16
atom: -------------------------------------------------------------------------

atom: SANKEY-TYPE ORBITALS:

SPLIT: Orbitals with angular momentum L= 0

SPLIT: Basis orbitals for state 6s

   izeta = 1
                 lambda =    1.000000
                     rc =    6.557093
                 energy =   -0.435455
                kinetic =    0.389259
    potential(screened) =   -0.824714
       potential(ionic) =   -8.467175

SPLIT: Orbitals with angular momentum L= 2

SPLIT: Basis orbitals for state 5d

   izeta = 1
                 lambda =    1.000000
                     rc =    5.933100
                 energy =   -0.524775
                kinetic =    4.913203
    potential(screened) =   -5.437978
       potential(ionic) =  -15.883506
atom: Total number of Sankey-type orbitals:  6

atm_pop: Valence configuration (for local Pseudopot. screening):
 6s( 1.00)                                                            
 6p( 0.00)                                                            
 5d(10.00)                                                            
Vna: chval, zval:   11.00000  11.00000

Vna:  Cut-off radius for the neutral-atom potential:   6.557093
comcore: Pseudo-core radius Rcore=  4.027091

atom: _________________________________________________________________________

prinput: Basis input ----------------------------------------------------------

PAO.BasisType split     

%block ChemicalSpeciesLabel
    1   79 Au                      # Species index, atomic number, species label
%endblock ChemicalSpeciesLabel

%block PAO.Basis                 # Define Basis set
Au                    2                    # Species label, number of l-shells
 n=6   0   1                         # n, l, Nzeta 
   6.557   
   1.000   
 n=5   2   1                         # n, l, Nzeta 
   5.933   
   1.000   
%endblock PAO.Basis

prinput: ----------------------------------------------------------------------

coor:   Atomic-coordinates input format  =     Cartesian coordinates
coor:                                          (in Angstroms)

siesta: Atomic coordinates (Bohr) and species
siesta:      0.00000   0.00000   0.00000  1        1
siesta:      0.00000   7.87638   0.00000  1        2
siesta:      3.93819   3.93819   0.00000  1        3
siesta:      3.93819  11.81457   0.00000  1        4
siesta:      7.87638   0.00000   0.00000  1        5
siesta:      7.87638   7.87638   0.00000  1        6
siesta:     11.81457   3.93819   0.00000  1        7
siesta:     11.81457  11.81457   0.00000  1        8
siesta:      0.00000   3.93819   3.93819  1        9
siesta:      0.00000  11.81457   3.93819  1       10
siesta:      3.93819   0.00000   3.93819  1       11
siesta:      3.93819   7.87638   3.93819  1       12
siesta:      7.87638   3.93819   3.93819  1       13
siesta:      7.87638  11.81457   3.93819  1       14
siesta:     11.81457   0.00000   3.93819  1       15
siesta:     11.81457   7.87638   3.93819  1       16
siesta:      0.00000   0.00000   7.87638  1       17
siesta:      0.00000   7.87638   7.87638  1       18
siesta:      3.93819   3.93819   7.87638  1       19
siesta:      3.93819  11.81457   7.87638  1       20
siesta:      7.87638   0.00000   7.87638  1       21
siesta:      7.87638   7.87638   7.87638  1       22
siesta:     11.81457   3.93819   7.87638  1       23
siesta:     11.81457  11.81457   7.87638  1       24
siesta:      0.00000   3.93819  11.81457  1       25
siesta:      0.00000  11.81457  11.81457  1       26
siesta:      3.93819   0.00000  11.81457  1       27
siesta:      3.93819   7.87638  11.81457  1       28
siesta:      7.87638   3.93819  11.81457  1       29
siesta:      7.87638  11.81457  11.81457  1       30
siesta:     11.81457   0.00000  11.81457  1       31
siesta:     11.81457   7.87638  11.81457  1       32
siesta:      0.00000   0.00000  15.75276  1       33
siesta:      0.00000   7.87638  15.75276  1       34
siesta:      3.93819   3.93819  15.75276  1       35
siesta:      3.93819  11.81457  15.75276  1       36
siesta:      7.87638   0.00000  15.75276  1       37
siesta:      7.87638   7.87638  15.75276  1       38
siesta:     11.81457   3.93819  15.75276  1       39
siesta:     11.81457  11.81457  15.75276  1       40
siesta:      0.00000   3.93819  19.69095  1       41
siesta:      0.00000  11.81457  19.69095  1       42
siesta:      3.93819   0.00000  19.69095  1       43
siesta:      3.93819   7.87638  19.69095  1       44
siesta:      7.87638   3.93819  19.69095  1       45
siesta:      7.87638  11.81457  19.69095  1       46
siesta:     11.81457   0.00000  19.69095  1       47
siesta:     11.81457   7.87638  19.69095  1       48
siesta:      0.00000   0.00000  40.48173  1       49
siesta:      0.00000   7.87638  40.48173  1       50
siesta:      3.93819   3.93819  40.48173  1       51
siesta:      3.93819  11.81457  40.48173  1       52
siesta:      7.87638   0.00000  40.48173  1       53
siesta:      7.87638   7.87638  40.48173  1       54
siesta:     11.81457   3.93819  40.48173  1       55
siesta:     11.81457  11.81457  40.48173  1       56
siesta:      0.00000   3.93819  44.41992  1       57
siesta:      0.00000  11.81457  44.41992  1       58
siesta:      3.93819   0.00000  44.41992  1       59
siesta:      3.93819   7.87638  44.41992  1       60
siesta:      7.87638   3.93819  44.41992  1       61
siesta:      7.87638  11.81457  44.41992  1       62
siesta:     11.81457   0.00000  44.41992  1       63
siesta:     11.81457   7.87638  44.41992  1       64
siesta:      0.00000   0.00000  48.35811  1       65
siesta:      0.00000   7.87638  48.35811  1       66
siesta:      3.93819   3.93819  48.35811  1       67
siesta:      3.93819  11.81457  48.35811  1       68
siesta:      7.87638   0.00000  48.35811  1       69
siesta:      7.87638   7.87638  48.35811  1       70
siesta:     11.81457   3.93819  48.35811  1       71
siesta:     11.81457  11.81457  48.35811  1       72
siesta:      0.00000   3.93819  52.29630  1       73
siesta:      0.00000  11.81457  52.29630  1       74
siesta:      3.93819   0.00000  52.29630  1       75
siesta:      3.93819   7.87638  52.29630  1       76
siesta:      7.87638   3.93819  52.29630  1       77
siesta:      7.87638  11.81457  52.29630  1       78
siesta:     11.81457   0.00000  52.29630  1       79
siesta:     11.81457   7.87638  52.29630  1       80
siesta:      0.00000   0.00000  56.23449  1       81
siesta:      0.00000   7.87638  56.23449  1       82
siesta:      3.93819   3.93819  56.23449  1       83
siesta:      3.93819  11.81457  56.23449  1       84
siesta:      7.87638   0.00000  56.23449  1       85
siesta:      7.87638   7.87638  56.23449  1       86
siesta:     11.81457   3.93819  56.23449  1       87
siesta:     11.81457  11.81457  56.23449  1       88
siesta:      0.00000   3.93819  60.17268  1       89
siesta:      0.00000  11.81457  60.17268  1       90
siesta:      3.93819   0.00000  60.17268  1       91
siesta:      3.93819   7.87638  60.17268  1       92
siesta:      7.87638   3.93819  60.17268  1       93
siesta:      7.87638  11.81457  60.17268  1       94
siesta:     11.81457   0.00000  60.17268  1       95
siesta:     11.81457   7.87638  60.17268  1       96

siesta: System type = bulk      

initatomlists: Number of atoms, orbitals, and projectors:     96   576  1536

SMEAGOL: ******************* SMEAGOL Simulation parameters ********************
SMEAGOL:
SMEAGOL:       The following are some of the SMEAGOL parameters of the
SMEAGOL:       simulation. A complete list of the parameters used,
SMEAGOL:       including default values, can be found in file fdf.log.
SMEAGOL:
redata: Transport in extended molecule                =      F
redata: # of points in real energy axis integral      =   6000
redata: # of contour points in semi-circle            =     34
redata: # of contour points in line region            =     20
redata: # of poles in the Fermi function              =      5
redata: Initial value of the bias potential           =      0.0000 Ry
redata: Final value of the bias potential             =      0.1000 Ry
redata: # of bias potential points                    =     10
redata: Small imaginary part                          =      0.00010
redata: Lower bound for the contour integral          =     -5.0000 Ry
redata: 1 = Leads with different spin                 =      0
redata: Atom of the lead where bias slope starts      =      1
redata: Atom of the lead where bias slope ends        =     96
redata: # of bulk slices to include in EM             =      1
redata: Calculate transmission coefficients           =      F
redata: Set bulk transversal cell                     =      F
redata: Bulk transversal cell size                    =      3
redata: Write leads H and S matrices at .HSL          =      F
redata: Init transport                                =      F
redata: Force super cell in z direction = 3           =      F
redata: Calculated electronic structure for           =     LR
redata: Write converged DM (at bias/MD selected step) =      F
redata: Hartree Leads Left                            =      0.0000 Bohr
redata: Hartree Leads Right                           =      0.0000 Bohr
redata: Hartree Leads Bottom                          =      0.0000 Ry
redata: Periodic leads in perpendicular directions    =      F
redata: Thresholds at generalized SVD                 =      0.000000001000
redata: Write .orb, .ef and .gHS files                =      F
redata: Write .onlyS files                            =      F
redata: Electron-phonon interaction                   =      F
redata: Invert only central region    =      F
redata: Calculate Forces    =      F
redata: ***********************************************************************

siesta: ******************** SIESTA Simulation parameters *********************
siesta:
siesta:       The following are some of the SIESTA parameters of the
siesta:       simulation. A complete list of the parameters used,
siesta:       including default values, can be found in file fdf.log.
siesta:
redata: Non-Collinear-spin run             =       F
redata: SpinPolarized (Up/Down) run        =       F
redata: Number of spin components          =       1
redata: Long output                        =       F
redata: Number of Atomic Species           =       1
redata: Charge density info will appear in .RHO file
redata: Write Mulliken Pop.                =      NO
redata: Mesh Cutoff                        =     200.0000  Ry
redata: Net charge of the system           =       0.0000 |e|
redata: Max. number of SCF Iter            =     200
redata: Performing Pulay mixing using      =       4 iterations
redata: Mix DM in first SCF step ?         =       T
redata: Write Pulay info on disk?          =       F
redata: Discard 1st Pulay DM after kick    =       F
redata: New DM Mixing Weight               =       0.1000
redata: New DM Occupancy tolerance         =       0.000000000001
redata: No kicks to SCF
redata: DM Mixing Weight for Kicks         =       0.5000
redata: DM Tolerance for SCF               =       0.000100
redata: Require Energy convergence for SCF =       F
redata: DM Energy tolerance for SCF        =       0.000100 eV
redata: Require Harris convergence for SCF =       F
redata: DM Harris energy tolerance for SCF =       0.000100 eV
redata: Using Saved Data (generic)         =       F
redata: Use continuation files for DM      =       T
redata: Neglect nonoverlap interactions    =       F
redata: Method of Calculation              =     Diagonalization
redata: Divide and Conquer                 =       T
redata: Electronic Temperature             =       0.0019  Ry
redata: Fix the spin of the system         =       F
redata: Dynamics option                    =     Verlet MD run
redata: Initial MD time step               =       1
redata: Final MD time step                 =       1
redata: Length of MD time step             =       1.0000  fs
redata: Initial Temperature of MD run      =       0.0000  K
redata: Perform a MD quench                =       F
redata: ***********************************************************************

Total number of electrons:  1056.000000
Total ionic charge:  1056.000000

* ProcessorY, Blocksize:    8   9

k-point displ. along   1 input, could be:     0.00    0.50
k-point displ. along   2 input, could be:     0.00    0.50
 Kpoints in:            4 . Kpoints trimmed:            4

siesta: k-grid: Number of k-points =     4
siesta: k-grid: Cutoff (effective) =     8.336 Ang
siesta: k-grid: Supercell and displacements
siesta: k-grid:    2   0   0      0.000
siesta: k-grid:    0   2   0      0.000
siesta: k-grid:    0   0   1      0.000
siesta: overlap:  rmaxh   veclen  direction
siesta: overlap:  20.0465 15.7528   1
siesta: overlap:  rmaxh   veclen  direction
siesta: overlap:  20.0465 15.7528   2
siesta: overlap:  rmaxh   veclen  direction
siesta: overlap:  20.0465 64.1109   3
Naive supercell factors:     3    3    1

superc: Internal auxiliary supercell:     3 x     3 x     1  =       9
superc: Number of atoms, orbitals, and projectors:    864   5184  13824

* Maximum dynamic memory allocated =     1 MB

siesta:                 ===============================
                            Begin MD step =      1
                        ===============================

superc: Internal auxiliary supercell:     3 x     3 x     1  =       9
superc: Number of atoms, orbitals, and projectors:    864   5184  13824

outcell: Unit cell vectors (Ang):
        8.336000    0.000000    0.000000
        0.000000    8.336000    0.000000
        0.000000    0.000000   33.926000

outcell: Cell vector modules (Ang)   :    8.336000    8.336000   33.926000
outcell: Cell angles (23,13,12) (deg):     90.0000     90.0000     90.0000
outcell: Cell volume (Ang**3)        :   2357.4803
New_DM. Step:     1
Initializing Density Matrix...

InitMesh: MESH =    72 x    72 x   300 =     1555200
InitMesh: Mesh cutoff (required, used) =   200.000   206.182 Ry

* Maximum dynamic memory allocated =    28 MB

stepf: Fermi-Dirac step function

siesta: Program's energy decomposition (eV):
siesta: Ebs     =     -7373.933563
siesta: Eions   =    115680.044384
siesta: Ena     =      6422.662625
siesta: Ekin    =     64683.513912
siesta: Enl     =    -24893.125172
siesta: DEna    =         0.000046
siesta: DUscf   =         0.000000
siesta: DUext   =         0.000000
siesta: Exc     =    -40111.144492
siesta: eta*DQ  =         0.000000
siesta: Emadel  =         0.000000
siesta: Emeta   =         0.000000
siesta: Emolmec =         0.000000
siesta: Ekinion =         0.000000
siesta: Eharris =   -109427.499597
siesta: Etot    =   -109578.137465
siesta: FreeEng =   -109578.137465

siesta: iscf   Eharris(eV)      E_KS(eV)   FreeEng(eV)   dDmax  Ef(eV)
siesta:    1  -109427.4996  -109578.1375  -109578.1375  0.3715 -2.4974
timer: Routine,Calls,Time,% = IterSCF        1     147.351  87.75
elaps: Routine,Calls,Wall,% = IterSCF        1       2.315  87.73
siesta:    2  -109431.1541  -109562.8141  -109562.9747  0.4497 -2.9618
siesta:    3  -109437.1412  -109553.4991  -109553.5541  0.6970 -2.5198
siesta:    4  -109431.3114  -109530.8895  -109531.0058  0.4239 -3.1096
siesta:    5  -109425.2914  -109426.0053  -109426.0714  0.1864 -3.2237
siesta:    6  -109425.4556  -109423.7603  -109423.8232  0.1972 -3.2286
siesta:    7  -109425.1109  -109430.5312  -109430.5904  0.1572 -3.2024
siesta:    8  -109425.4701  -109421.0282  -109421.0888  0.1686 -3.0644
siesta:    9  -109425.3060  -109429.5536  -109429.6565  0.1074 -3.1763
siesta:   10  -109424.9612  -109423.7969  -109423.8530  0.0697 -3.0638
siesta:   11  -109425.2797  -109424.6542  -109424.7379  0.1002 -3.0804
siesta:   12  -109424.9375  -109425.0104  -109425.0715  0.0593 -3.0867
siesta:   13  -109424.8763  -109424.8157  -109424.8863  0.0221 -3.0859
siesta:   14  -109424.8699  -109424.8710  -109424.9453  0.0226 -3.0821
siesta:   15  -109424.8886  -109424.8535  -109424.9308  0.0224 -3.1112
siesta:   16  -109424.8652  -109424.8647  -109424.9332  0.0078 -3.1021
siesta:   17  -109424.8638  -109424.8931  -109424.9675  0.0050 -3.1058
siesta:   18  -109424.8634  -109424.9161  -109424.9901  0.0053 -3.1085
siesta:   19  -109424.8627  -109424.9440  -109425.0180  0.0080 -3.1077
siesta:   20  -109424.8640  -109424.9347  -109425.0100  0.0044 -3.1121
siesta:   21  -109424.8629  -109424.9341  -109425.0078  0.0069 -3.1069
siesta:   22  -109424.8632  -109424.9360  -109425.0113  0.0033 -3.1109
siesta:   23  -109424.8627  -109424.9256  -109424.9999  0.0019 -3.1104
siesta:   24  -109424.8624  -109424.9184  -109424.9927  0.0018 -3.1103
siesta:   25  -109424.8627  -109424.9087  -109424.9830  0.0014 -3.1103
siesta:   26  -109424.8621  -109424.9065  -109424.9807  0.0014 -3.1086
siesta:   27  -109424.8627  -109424.8967  -109424.9714  0.0009 -3.1095
siesta:   28  -109424.8626  -109424.8887  -109424.9631  0.0005 -3.1091
siesta:   29  -109424.8625  -109424.8806  -109424.9550  0.0006 -3.1089
siesta:   30  -109424.8628  -109424.8706  -109424.9450  0.0003 -3.1087
siesta:   31  -109424.8627  -109424.8665  -109424.9410  0.0004 -3.1083
siesta:   32  -109424.8629  -109424.8682  -109424.9428  0.0004 -3.1088
siesta:   33  -109424.8630  -109424.8629  -109424.9373  0.0002 -3.1085
siesta:   34  -109424.8631  -109424.8610  -109424.9355  0.0002 -3.1084
siesta:   35  -109424.8630  -109424.8592  -109424.9337  0.0002 -3.1084
siesta:   36  -109424.8629  -109424.8587  -109424.9331  0.0002 -3.1084
siesta:   37  -109424.8630  -109424.8622  -109424.9367  0.0004 -3.1091
siesta:   38  -109424.8630  -109424.8592  -109424.9335  0.0001 -3.1086
siesta:   39  -109424.8630  -109424.8599  -109424.9343  0.0000 -3.1086

siesta: E_KS(eV) =          -109424.8604

siesta: E_KS - E_eggbox =   -109424.8604

siesta: Atomic forces (eV/Ang):
     1    0.000016    0.000012    0.019853
     2    0.000008   -0.000001    0.019846
     3    0.000006   -0.000000    0.019849
     4   -0.000000   -0.000000    0.019847
     5    0.000008    0.000006    0.019855
     6    0.000006   -0.000001    0.019850
     7    0.000007   -0.000000    0.019846
     8    0.000000   -0.000001    0.019845
     9    0.000028    0.000000   -0.198023
    10    0.000014    0.000007   -0.198029
    11    0.000009    0.000032   -0.198023
    12    0.000013    0.000001   -0.198014
    13    0.000013    0.000000   -0.198014
    14    0.000000    0.000007   -0.198025
    15    0.000009    0.000031   -0.198030
    16    0.000017   -0.000000   -0.198021
    17    0.000015    0.000018    0.936284
    18    0.000024    0.000000    0.936281
    19    0.000014   -0.000000    0.936282
    20   -0.000001    0.000003    0.936273
    21    0.000003    0.000019    0.936291
    22    0.000015    0.000000    0.936281
    23    0.000013   -0.000000    0.936278
    24    0.000002    0.000003    0.936268
    25    0.000019   -0.000000   -0.492088
    26    0.000009    0.000006   -0.492092
    27    0.000010    0.000020   -0.492080
    28    0.000010   -0.000000   -0.492082
    29    0.000011   -0.000000   -0.492082
    30    0.000002    0.000010   -0.492092
    31    0.000011    0.000019   -0.492083
    32    0.000016   -0.000000   -0.492088
    33    0.000028    0.000031    0.205363
    34    0.000038    0.000000    0.205376
    35    0.000011   -0.000000    0.205385
    36   -0.000002    0.000015    0.205363
    37    0.000008    0.000036    0.205375
    38    0.000012   -0.000000    0.205385
    39    0.000027    0.000000    0.205367
    40    0.000005    0.000004    0.205356
    41    0.000018    0.000000   -0.400776
    42    0.000003   -0.000005   -0.400768
    43    0.000004    0.000013   -0.400778
    44    0.000012    0.000001   -0.400776
    45    0.000012    0.000001   -0.400775
    46    0.000000   -0.000002   -0.400765
    47    0.000003    0.000011   -0.400779
    48    0.000007    0.000001   -0.400771
    49    0.000006    0.000014   -0.378214
    50    0.000016    0.000000   -0.378219
    51    0.000007    0.000001   -0.378214
    52    0.000003    0.000003   -0.378219
    53    0.000007    0.000013   -0.378216
    54    0.000008    0.000000   -0.378213
    55    0.000008    0.000000   -0.378214
    56    0.000003    0.000002   -0.378219
    57    0.000004    0.000000    1.017148
    58    0.000002    0.000004    1.017154
    59    0.000000    0.000015    1.017140
    60   -0.000007   -0.000000    1.017149
    61   -0.000008    0.000000    1.017148
    62   -0.000010   -0.000000    1.017152
    63    0.000007    0.000014    1.017146
    64   -0.000000   -0.000000    1.017151
    65    0.000012    0.000017   -0.415633
    66    0.000016   -0.000001   -0.415637
    67    0.000003   -0.000000   -0.415629
    68   -0.000003    0.000013   -0.415640
    69   -0.000001    0.000015   -0.415625
    70    0.000004    0.000000   -0.415629
    71    0.000016    0.000000   -0.415644
    72    0.000001    0.000003   -0.415642
    73    0.000017    0.000000    0.291348
    74    0.000007   -0.000001    0.291360
    75    0.000002    0.000014    0.291346
    76    0.000011    0.000001    0.291341
    77    0.000011    0.000000    0.291341
    78   -0.000002    0.000000    0.291356
    79   -0.000004    0.000016    0.291356
    80    0.000001    0.000000    0.291354
    81    0.000025    0.000026   -0.575170
    82    0.000029    0.000000   -0.575173
    83    0.000008   -0.000000   -0.575170
    84    0.000002   -0.000007   -0.575176
    85    0.000002    0.000033   -0.575165
    86    0.000009   -0.000000   -0.575168
    87    0.000000    0.000000   -0.575174
    88   -0.000002   -0.000003   -0.575186
    89    0.000035    0.000000   -0.015819
    90    0.000005    0.000003   -0.015824
    91    0.000001    0.000035   -0.015822
    92    0.000021    0.000001   -0.015827
    93    0.000022   -0.000001   -0.015825
    94   -0.000006    0.000007   -0.015824
    95    0.000002    0.000037   -0.015827
    96    0.000025   -0.000000   -0.015822
----------------------------------------
   Tot    0.000827    0.000569   -0.045845
----------------------------------------
   Max    1.017154
   Res    0.294747    sqrt( Sum f_i^2 / 3N )
----------------------------------------
   Max    1.017154    constrained

Stress-tensor-Voigt (kbar):      -15.23      -15.23      -20.19       -0.00       -0.00       -0.00
(Free)E + p*V (eV/cell)  -109400.0887
Target enthalpy (eV/cell)  -109424.9349

siesta: Stress tensor (static) (eV/Ang**3):
        -0.009509   -0.000000   -0.000000
        -0.000000   -0.009509   -0.000000
        -0.000000   -0.000000   -0.012600

siesta: Pressure (static):         16.88596285  kBar

siesta: Stress tensor (total) (eV/Ang**3):
        -0.009509   -0.000000   -0.000000
        -0.000000   -0.009509   -0.000000
        -0.000000   -0.000000   -0.012600

siesta: Pressure (total):         16.88596285  kBar

siesta: Temp_ion =       0.000 K

* Maximum dynamic memory allocated =    31 MB

coxmol: Writing XMOL coordinates into file dft_wfn.xyz                                                     

siesta: Program's energy decomposition (eV):
siesta: Ebs     =     -8068.478496
siesta: Eions   =    115680.044384
siesta: Ena     =      6422.662625
siesta: Ekin    =     64365.571065
siesta: Enl     =    -24579.649305
siesta: DEna    =       100.475008
siesta: DUscf   =         1.556124
siesta: DUext   =         0.000000
siesta: Exc     =    -40055.431549
siesta: eta*DQ  =         0.000000
siesta: Emadel  =         0.000000
siesta: Emeta   =         0.000000
siesta: Emolmec =         0.000000
siesta: Ekinion =         0.000000
siesta: Eharris =   -109424.863038
siesta: Etot    =   -109424.860417
siesta: FreeEng =   -109424.934864

siesta: Final energy (eV):
siesta:  Band Struct. =   -8068.478496
siesta:       Kinetic =   64365.571065
siesta:       Hartree =  295031.609174
siesta:    Ext. field =       0.000000
siesta:   Exch.-corr. =  -40055.431549
siesta:  Ion-electron = -640431.999232
siesta:       Ion-ion =  211665.390125
siesta:       Ekinion =       0.000000
siesta:         Total = -109424.860417

siesta: Atomic forces (eV/Ang):
siesta:      1    0.000016    0.000012    0.019853
siesta:      2    0.000008   -0.000001    0.019846
siesta:      3    0.000006   -0.000000    0.019849
siesta:      4   -0.000000   -0.000000    0.019847
siesta:      5    0.000008    0.000006    0.019855
siesta:      6    0.000006   -0.000001    0.019850
siesta:      7    0.000007   -0.000000    0.019846
siesta:      8    0.000000   -0.000001    0.019845
siesta:      9    0.000028    0.000000   -0.198023
siesta:     10    0.000014    0.000007   -0.198029
siesta:     11    0.000009    0.000032   -0.198023
siesta:     12    0.000013    0.000001   -0.198014
siesta:     13    0.000013    0.000000   -0.198014
siesta:     14    0.000000    0.000007   -0.198025
siesta:     15    0.000009    0.000031   -0.198030
siesta:     16    0.000017   -0.000000   -0.198021
siesta:     17    0.000015    0.000018    0.936284
siesta:     18    0.000024    0.000000    0.936281
siesta:     19    0.000014   -0.000000    0.936282
siesta:     20   -0.000001    0.000003    0.936273
siesta:     21    0.000003    0.000019    0.936291
siesta:     22    0.000015    0.000000    0.936281
siesta:     23    0.000013   -0.000000    0.936278
siesta:     24    0.000002    0.000003    0.936268
siesta:     25    0.000019   -0.000000   -0.492088
siesta:     26    0.000009    0.000006   -0.492092
siesta:     27    0.000010    0.000020   -0.492080
siesta:     28    0.000010   -0.000000   -0.492082
siesta:     29    0.000011   -0.000000   -0.492082
siesta:     30    0.000002    0.000010   -0.492092
siesta:     31    0.000011    0.000019   -0.492083
siesta:     32    0.000016   -0.000000   -0.492088
siesta:     33    0.000028    0.000031    0.205363
siesta:     34    0.000038    0.000000    0.205376
siesta:     35    0.000011   -0.000000    0.205385
siesta:     36   -0.000002    0.000015    0.205363
siesta:     37    0.000008    0.000036    0.205375
siesta:     38    0.000012   -0.000000    0.205385
siesta:     39    0.000027    0.000000    0.205367
siesta:     40    0.000005    0.000004    0.205356
siesta:     41    0.000018    0.000000   -0.400776
siesta:     42    0.000003   -0.000005   -0.400768
siesta:     43    0.000004    0.000013   -0.400778
siesta:     44    0.000012    0.000001   -0.400776
siesta:     45    0.000012    0.000001   -0.400775
siesta:     46    0.000000   -0.000002   -0.400765
siesta:     47    0.000003    0.000011   -0.400779
siesta:     48    0.000007    0.000001   -0.400771
siesta:     49    0.000006    0.000014   -0.378214
siesta:     50    0.000016    0.000000   -0.378219
siesta:     51    0.000007    0.000001   -0.378214
siesta:     52    0.000003    0.000003   -0.378219
siesta:     53    0.000007    0.000013   -0.378216
siesta:     54    0.000008    0.000000   -0.378213
siesta:     55    0.000008    0.000000   -0.378214
siesta:     56    0.000003    0.000002   -0.378219
siesta:     57    0.000004    0.000000    1.017148
siesta:     58    0.000002    0.000004    1.017154
siesta:     59    0.000000    0.000015    1.017140
siesta:     60   -0.000007   -0.000000    1.017149
siesta:     61   -0.000008    0.000000    1.017148
siesta:     62   -0.000010   -0.000000    1.017152
siesta:     63    0.000007    0.000014    1.017146
siesta:     64   -0.000000   -0.000000    1.017151
siesta:     65    0.000012    0.000017   -0.415633
siesta:     66    0.000016   -0.000001   -0.415637
siesta:     67    0.000003   -0.000000   -0.415629
siesta:     68   -0.000003    0.000013   -0.415640
siesta:     69   -0.000001    0.000015   -0.415625
siesta:     70    0.000004    0.000000   -0.415629
siesta:     71    0.000016    0.000000   -0.415644
siesta:     72    0.000001    0.000003   -0.415642
siesta:     73    0.000017    0.000000    0.291348
siesta:     74    0.000007   -0.000001    0.291360
siesta:     75    0.000002    0.000014    0.291346
siesta:     76    0.000011    0.000001    0.291341
siesta:     77    0.000011    0.000000    0.291341
siesta:     78   -0.000002    0.000000    0.291356
siesta:     79   -0.000004    0.000016    0.291356
siesta:     80    0.000001    0.000000    0.291354
siesta:     81    0.000025    0.000026   -0.575170
siesta:     82    0.000029    0.000000   -0.575173
siesta:     83    0.000008   -0.000000   -0.575170
siesta:     84    0.000002   -0.000007   -0.575176
siesta:     85    0.000002    0.000033   -0.575165
siesta:     86    0.000009   -0.000000   -0.575168
siesta:     87    0.000000    0.000000   -0.575174
siesta:     88   -0.000002   -0.000003   -0.575186
siesta:     89    0.000035    0.000000   -0.015819
siesta:     90    0.000005    0.000003   -0.015824
siesta:     91    0.000001    0.000035   -0.015822
siesta:     92    0.000021    0.000001   -0.015827
siesta:     93    0.000022   -0.000001   -0.015825
siesta:     94   -0.000006    0.000007   -0.015824
siesta:     95    0.000002    0.000037   -0.015827
siesta:     96    0.000025   -0.000000   -0.015822
siesta: ----------------------------------------
siesta:    Tot    0.000827    0.000569   -0.045845

siesta: Stress tensor (static) (eV/Ang**3):
siesta:    -0.009509   -0.000000   -0.000000
siesta:    -0.000000   -0.009509   -0.000000
siesta:    -0.000000   -0.000000   -0.012600

siesta: Cell volume =       2357.480286 Ang**3

siesta: Pressure (static):
siesta:                Solid            Molecule  Units
siesta:           0.00011479          0.00019297  Ry/Bohr**3
siesta:           0.01053928          0.01771763  eV/Ang**3
siesta:          16.88596285         28.38708231  kBar
(Free)E+ p_basis*V_orbitals  =     -109388.428817
(Free)Eharris+ p_basis*V_orbitals  =     -109388.431982

* Maximum dynamic memory allocated : Node    0 =    31 MB
* Maximum dynamic memory allocated : Node    1 =    30 MB
* Maximum dynamic memory allocated : Node    2 =    27 MB
* Maximum dynamic memory allocated : Node    3 =    22 MB
* Maximum dynamic memory allocated : Node    4 =    24 MB
* Maximum dynamic memory allocated : Node    5 =    30 MB
* Maximum dynamic memory allocated : Node    6 =    30 MB
* Maximum dynamic memory allocated : Node    7 =    30 MB
* Maximum dynamic memory allocated : Node    8 =    30 MB
* Maximum dynamic memory allocated : Node    9 =    30 MB
* Maximum dynamic memory allocated : Node   10 =    27 MB
* Maximum dynamic memory allocated : Node   11 =    22 MB
* Maximum dynamic memory allocated : Node   12 =    24 MB
* Maximum dynamic memory allocated : Node   13 =    30 MB
* Maximum dynamic memory allocated : Node   14 =    30 MB
* Maximum dynamic memory allocated : Node   15 =    30 MB
* Maximum dynamic memory allocated : Node   16 =    30 MB
* Maximum dynamic memory allocated : Node   17 =    30 MB
* Maximum dynamic memory allocated : Node   18 =    27 MB
* Maximum dynamic memory allocated : Node   19 =    22 MB
* Maximum dynamic memory allocated : Node   20 =    24 MB
* Maximum dynamic memory allocated : Node   21 =    29 MB
* Maximum dynamic memory allocated : Node   22 =    30 MB
* Maximum dynamic memory allocated : Node   23 =    30 MB
* Maximum dynamic memory allocated : Node   24 =    30 MB
* Maximum dynamic memory allocated : Node   25 =    30 MB
* Maximum dynamic memory allocated : Node   26 =    27 MB
* Maximum dynamic memory allocated : Node   27 =    22 MB
* Maximum dynamic memory allocated : Node   28 =    24 MB
* Maximum dynamic memory allocated : Node   29 =    29 MB
* Maximum dynamic memory allocated : Node   30 =    30 MB
* Maximum dynamic memory allocated : Node   31 =    30 MB
* Maximum dynamic memory allocated : Node   32 =    28 MB
* Maximum dynamic memory allocated : Node   33 =    28 MB
* Maximum dynamic memory allocated : Node   34 =    26 MB
* Maximum dynamic memory allocated : Node   35 =    22 MB
* Maximum dynamic memory allocated : Node   36 =    23 MB
* Maximum dynamic memory allocated : Node   37 =    28 MB
* Maximum dynamic memory allocated : Node   38 =    28 MB
* Maximum dynamic memory allocated : Node   39 =    28 MB
* Maximum dynamic memory allocated : Node   40 =    29 MB
* Maximum dynamic memory allocated : Node   41 =    28 MB
* Maximum dynamic memory allocated : Node   42 =    26 MB
* Maximum dynamic memory allocated : Node   43 =    22 MB
* Maximum dynamic memory allocated : Node   44 =    24 MB
* Maximum dynamic memory allocated : Node   45 =    28 MB
* Maximum dynamic memory allocated : Node   46 =    28 MB
* Maximum dynamic memory allocated : Node   47 =    28 MB
* Maximum dynamic memory allocated : Node   48 =    29 MB
* Maximum dynamic memory allocated : Node   49 =    29 MB
* Maximum dynamic memory allocated : Node   50 =    26 MB
* Maximum dynamic memory allocated : Node   51 =    22 MB
* Maximum dynamic memory allocated : Node   52 =    24 MB
* Maximum dynamic memory allocated : Node   53 =    28 MB
* Maximum dynamic memory allocated : Node   54 =    29 MB
* Maximum dynamic memory allocated : Node   55 =    28 MB
* Maximum dynamic memory allocated : Node   56 =    29 MB
* Maximum dynamic memory allocated : Node   57 =    29 MB
* Maximum dynamic memory allocated : Node   58 =    26 MB
* Maximum dynamic memory allocated : Node   59 =    22 MB
* Maximum dynamic memory allocated : Node   60 =    24 MB
* Maximum dynamic memory allocated : Node   61 =    28 MB
* Maximum dynamic memory allocated : Node   62 =    28 MB
* Maximum dynamic memory allocated : Node   63 =    28 MB

* Maximum memory occured during matrixMtoO                    

timer: CPU execution times:
timer:  Routine       Calls   Time/call    Tot.time        %
timer:  siesta            1    3027.739    3027.739   100.00
timer:  Setup             1      15.223      15.223     0.50
timer:  bands             1       0.035       0.035     0.00
timer:  writewave         1       0.088       0.088     0.00
timer:  KSV_init          1       0.018       0.018     0.00
timer:  IterMD            1    2997.771    2997.771    99.01
timer:  hsparse           1       0.804       0.804     0.03
timer:  overlap           1       2.564       2.564     0.08
timer:  IterSCF          39      75.488    2944.022    97.23
timer:  kinefsm           2       1.218       2.437     0.08
timer:  nlefsm            2      17.389      34.778     1.15
timer:  DHSCF            41      13.618     558.322    18.44
timer:  DHSCF1            1       3.976       3.976     0.13
timer:  DHSCF2            1      34.485      34.485     1.14
timer:  REORD           334       0.002       0.626     0.02
timer:  POISON           42       0.229       9.618     0.32
timer:  DHSCF3           41      12.380     507.585    16.76
timer:  rhoofd           41       2.785     114.171     3.77
timer:  cellXC           41       0.266      10.913     0.36
timer:  vmat             40       7.197     287.879     9.51
timer:  MolMec            2       0.001       0.002     0.00
timer:  diagon           39      59.984    2339.378    77.26
timer:  c-eigval        156       6.797    1060.406    35.02
timer:  c-buildHS       156       0.008       1.236     0.04
timer:  cdiag           312       7.016    2189.100    72.30
timer:  cdiag1          312       0.457     142.464     4.71
timer:  cdiag2          312       2.545     794.111    26.23
timer:  cdiag3          312       3.738    1166.185    38.52
timer:  cdiag4          312       0.229      71.355     2.36
timer:  c-eigvec        156       7.250    1130.993    37.35
timer:  c-buildD        156       0.934     145.670     4.81
timer:  DHSCF4            1      11.904      11.904     0.39
timer:  dfscf             1       6.462       6.462     0.21
timer:  overfsm           1       0.134       0.134     0.00
timer:  optical           1       2.168       2.168     0.07
  

elaps: ELAPSED times:
elaps:  Routine       Calls   Time/call    Tot.time        %
elaps:  siesta            1      47.491      47.491   100.00
elaps:  Setup             1       0.240       0.240     0.50
elaps:  bands             1       0.001       0.001     0.00
elaps:  writewave         1       0.001       0.001     0.00
elaps:  KSV_init          1       0.000       0.000     0.00
elaps:  IterMD            1      47.018      47.018    99.00
elaps:  hsparse           1       0.013       0.013     0.03
elaps:  overlap           1       0.042       0.042     0.09
elaps:  IterSCF          39       1.184      46.178    97.23
elaps:  kinefsm           2       0.020       0.040     0.08
elaps:  nlefsm            2       0.340       0.681     1.43
elaps:  DHSCF            41       0.215       8.799    18.53
elaps:  DHSCF1            1       0.066       0.066     0.14
elaps:  DHSCF2            1       0.537       0.537     1.13
elaps:  REORD           334       0.000       0.010     0.02
elaps:  POISON           42       0.004       0.154     0.32
elaps:  DHSCF3           41       0.194       7.950    16.74
elaps:  rhoofd           41       0.072       2.938     6.19
elaps:  cellXC           41       0.004       0.170     0.36
elaps:  vmat             40       0.113       4.509     9.49
elaps:  MolMec            2       0.000       0.000     0.00
elaps:  diagon           39       0.941      36.716    77.31
elaps:  c-eigval        156       0.107      16.640    35.04
elaps:  c-buildHS       156       0.000       0.022     0.05
elaps:  cdiag           312       0.110      34.278    72.18
elaps:  cdiag1          312       0.007       2.340     4.93
elaps:  cdiag2          312       0.039      12.291    25.88
elaps:  cdiag3          312       0.059      18.377    38.69
elaps:  cdiag4          312       0.004       1.112     2.34
elaps:  c-eigvec        156       0.113      17.682    37.23
elaps:  c-buildD        156       0.015       2.292     4.83
elaps:  DHSCF4            1       0.240       0.240     0.50
elaps:  dfscf             1       0.142       0.142     0.30
elaps:  overfsm           1       0.002       0.002     0.00
elaps:  optical           1       0.000       0.000     0.00
  
>> End of run:   3-NOV-2023  11:45:50
