 # Version information for this restart file 
 # current date 2024-01-13 01:14:56.671
 # current working dir /gpfs/home/cahart/transport/melamine/au_from-h2/ci-neb/ts2/dft_leads-sz_tip-dzvp_surf-dzvp_kpoints-2-4-20_replicas-3
 # Program compiled at                              Thu 21 Sep 19:20:17 BST 2023
 # Program compiled on                                           hx1-c12-login-1
 # Program compiled for                                                    local
 # Source code revision number                                       git:5518aa6
 &GLOBAL
   EXTENDED_FFT_LENGTHS  T
   PRINT_LEVEL  MEDIUM
   PROJECT_NAME 2_dft_wfn-r-0
   OUTPUT_FILE_NAME 2_dft_wfn-r-0.out
   RUN_TYPE  BAND
 &END GLOBAL
 &MOTION
   &BAND
     NPROC_REP  64
     BAND_TYPE  CI-NEB
     NUMBER_OF_REPLICA  3
     K_SPRING     5.0000000000000003E-02
     &CI_NEB
       NSTEPS_IT  5
     &END CI_NEB
     &OPTIMIZE_BAND
       OPT_TYPE  DIIS
       &DIIS
         MAX_STEPS  1000
       &END DIIS
     &END OPTIMIZE_BAND
     &REPLICA
       &COORD
             0.0000000000000000E+00    0.0000000000000000E+00    0.0000000000000000E+00
             0.0000000000000000E+00    2.9550000000000138E+00    0.0000000000000000E+00
             0.0000000000000000E+00    5.9110000000000209E+00    0.0000000000000000E+00
             2.9560000000000133E+00    0.0000000000000000E+00    0.0000000000000000E+00
             2.9560000000000133E+00    2.9550000000000138E+00    0.0000000000000000E+00
             2.9560000000000133E+00    5.9110000000000209E+00    0.0000000000000000E+00
             5.9120000000000266E+00    0.0000000000000000E+00    0.0000000000000000E+00
             5.9120000000000266E+00    2.9550000000000138E+00    0.0000000000000000E+00
             5.9120000000000266E+00    5.9110000000000209E+00    0.0000000000000000E+00
             8.6700000000000461E+00    0.0000000000000000E+00    0.0000000000000000E+00
             8.6700000000000461E+00    2.9550000000000138E+00    0.0000000000000000E+00
             8.6700000000000461E+00    5.9110000000000209E+00    0.0000000000000000E+00
             1.1626000000000058E+01    0.0000000000000000E+00    0.0000000000000000E+00
             1.1626000000000058E+01    2.9550000000000138E+00    0.0000000000000000E+00
             1.1626000000000058E+01    5.9110000000000209E+00    0.0000000000000000E+00
             1.4780000000000066E+00    1.4780000000000066E+00    2.0900000000000101E+00
             1.4780000000000066E+00    4.4330000000000229E+00    2.0900000000000101E+00
             1.4780000000000066E+00    7.3890000000000358E+00    2.0900000000000101E+00
             4.4340000000000215E+00    1.4780000000000066E+00    2.0900000000000101E+00
             4.4340000000000215E+00    4.4330000000000229E+00    2.0900000000000101E+00
             4.4340000000000215E+00    7.3890000000000358E+00    2.0900000000000101E+00
             7.1920000000000304E+00    1.4780000000000066E+00    2.0900000000000101E+00
             7.1920000000000304E+00    4.4330000000000229E+00    2.0900000000000101E+00
             7.1920000000000304E+00    7.3890000000000358E+00    2.0900000000000101E+00
             1.0148000000000049E+01    1.4780000000000066E+00    2.0900000000000101E+00
             1.0148000000000049E+01    4.4330000000000229E+00    2.0900000000000101E+00
             1.0148000000000049E+01    7.3890000000000358E+00    2.0900000000000101E+00
             1.3104000000000056E+01    1.4780000000000066E+00    2.0900000000000101E+00
             1.3104000000000056E+01    4.4330000000000229E+00    2.0900000000000101E+00
             1.3104000000000056E+01    7.3890000000000358E+00    2.0900000000000101E+00
             0.0000000000000000E+00    0.0000000000000000E+00    4.1800000000000201E+00
             0.0000000000000000E+00    2.9550000000000138E+00    4.1800000000000201E+00
             0.0000000000000000E+00    5.9110000000000209E+00    4.1800000000000201E+00
             2.9560000000000133E+00    0.0000000000000000E+00    4.1800000000000201E+00
             2.9560000000000133E+00    2.9550000000000138E+00    4.1800000000000201E+00
             2.9560000000000133E+00    5.9110000000000209E+00    4.1800000000000201E+00
             5.9120000000000266E+00    0.0000000000000000E+00    4.1800000000000201E+00
             5.9120000000000266E+00    2.9550000000000138E+00    4.1800000000000201E+00
             5.9120000000000266E+00    5.9110000000000209E+00    4.1800000000000201E+00
             8.6700000000000461E+00    0.0000000000000000E+00    4.1800000000000201E+00
             8.6700000000000461E+00    2.9550000000000138E+00    4.1800000000000201E+00
             8.6700000000000461E+00    5.9110000000000209E+00    4.1800000000000201E+00
             1.1626000000000058E+01    0.0000000000000000E+00    4.1800000000000201E+00
             1.1626000000000058E+01    2.9550000000000138E+00    4.1800000000000201E+00
             1.1626000000000058E+01    5.9110000000000209E+00    4.1800000000000201E+00
             1.4780000000000066E+00    1.4780000000000066E+00    6.2700000000000262E+00
             1.4780000000000066E+00    4.4330000000000229E+00    6.2700000000000262E+00
             1.4780000000000066E+00    7.3890000000000358E+00    6.2700000000000262E+00
             4.4340000000000215E+00    1.4780000000000066E+00    6.2700000000000262E+00
             4.4340000000000215E+00    4.4330000000000229E+00    6.2700000000000262E+00
             4.4340000000000215E+00    7.3890000000000358E+00    6.2700000000000262E+00
             7.1920000000000304E+00    1.4780000000000066E+00    6.2700000000000262E+00
             7.1920000000000304E+00    4.4330000000000229E+00    6.2700000000000262E+00
             7.1920000000000304E+00    7.3890000000000358E+00    6.2700000000000262E+00
             1.0148000000000049E+01    1.4780000000000066E+00    6.2700000000000262E+00
             1.0148000000000049E+01    4.4330000000000229E+00    6.2700000000000262E+00
             1.0148000000000049E+01    7.3890000000000358E+00    6.2700000000000262E+00
             1.3104000000000056E+01    1.4780000000000066E+00    6.2700000000000262E+00
             1.3104000000000056E+01    4.4330000000000229E+00    6.2700000000000262E+00
             1.3104000000000056E+01    7.3890000000000358E+00    6.2700000000000262E+00
             0.0000000000000000E+00    0.0000000000000000E+00    8.3600000000000403E+00
             0.0000000000000000E+00    2.9550000000000138E+00    8.3600000000000403E+00
             0.0000000000000000E+00    5.9110000000000209E+00    8.3600000000000403E+00
             2.9560000000000133E+00    0.0000000000000000E+00    8.3600000000000403E+00
             2.9560000000000133E+00    2.9550000000000138E+00    8.3600000000000403E+00
             2.9560000000000133E+00    5.9110000000000209E+00    8.3600000000000403E+00
             5.9120000000000266E+00    0.0000000000000000E+00    8.3600000000000403E+00
             5.9120000000000266E+00    2.9550000000000138E+00    8.3600000000000403E+00
             5.9120000000000266E+00    5.9110000000000209E+00    8.3600000000000403E+00
             8.6700000000000461E+00    0.0000000000000000E+00    8.3600000000000403E+00
             8.6700000000000461E+00    2.9550000000000138E+00    8.3600000000000403E+00
             8.6700000000000461E+00    5.9110000000000209E+00    8.3600000000000403E+00
             1.1626000000000058E+01    0.0000000000000000E+00    8.3600000000000403E+00
             1.1626000000000058E+01    2.9550000000000138E+00    8.3600000000000403E+00
             1.1626000000000058E+01    5.9110000000000209E+00    8.3600000000000403E+00
             1.4780000000000066E+00    1.4780000000000066E+00    1.0450000000000047E+01
             1.4780000000000066E+00    4.4330000000000229E+00    1.0450000000000047E+01
             1.4780000000000066E+00    7.3890000000000358E+00    1.0450000000000047E+01
             4.4340000000000215E+00    1.4780000000000066E+00    1.0450000000000047E+01
             4.4340000000000215E+00    4.4330000000000229E+00    1.0450000000000047E+01
             4.4340000000000215E+00    7.3890000000000358E+00    1.0450000000000047E+01
             7.1920000000000304E+00    1.4780000000000066E+00    1.0450000000000047E+01
             7.1920000000000304E+00    4.4330000000000229E+00    1.0450000000000047E+01
             7.1920000000000304E+00    7.3890000000000358E+00    1.0450000000000047E+01
             1.0148000000000049E+01    1.4780000000000066E+00    1.0450000000000047E+01
             1.0148000000000049E+01    4.4330000000000229E+00    1.0450000000000047E+01
             1.0148000000000049E+01    7.3890000000000358E+00    1.0450000000000047E+01
             1.3104000000000056E+01    1.4780000000000066E+00    1.0450000000000047E+01
             1.3104000000000056E+01    4.4330000000000229E+00    1.0450000000000047E+01
             1.3104000000000056E+01    7.3890000000000358E+00    1.0450000000000047E+01
             4.8554000000000164E+00    5.9119000000000295E+00    1.2031800000000056E+01
             9.5280000000000467E+00    5.9137000000000244E+00    1.2034000000000052E+01
             7.1920000000000304E+00    5.9340000000000312E+00    1.2040000000000063E+01
             4.0673339928000205E+00    5.9059993220000244E+00    1.2687741368900060E+01
             1.0318905404800050E+01    5.9087793826000228E+00    1.2685747073200057E+01
             5.9989554222000283E+00    5.9152564166000294E+00    1.2792642411200058E+01
             8.3738707293000374E+00    5.9179777707000287E+00    1.2731457252200066E+01
             8.3227525762000401E+00    5.9051536095000206E+00    1.4080497642100067E+01
             5.9344285049000263E+00    5.8981604865000286E+00    1.4101749969600064E+01
             7.1039653577000363E+00    5.8899410689000282E+00    1.4828703219100058E+01
             7.2416021047000374E+00    5.8657702092000248E+00    1.6106466757300069E+01
             6.3118250323000265E+00    5.8547577071000241E+00    1.6539601306200076E+01
             9.1743570613000429E+00    5.8876302392000230E+00    1.4641017735300062E+01
             7.3120000000000340E+00    5.9340000000000312E+00    2.1043000000000095E+01
             5.8130000000000290E+00    7.4340000000000321E+00    2.2992000000000115E+01
             8.8130000000000344E+00    4.4340000000000215E+00    2.2992000000000115E+01
             5.8130000000000290E+00    4.4330000000000229E+00    2.2992000000000115E+01
             8.8130000000000344E+00    7.4340000000000321E+00    2.2992000000000115E+01
             1.4780000000000066E+00    1.4780000000000066E+00    2.5082000000000122E+01
             1.4780000000000066E+00    4.4330000000000229E+00    2.5082000000000122E+01
             1.4780000000000066E+00    7.3890000000000358E+00    2.5082000000000122E+01
             4.4340000000000215E+00    1.4780000000000066E+00    2.5082000000000122E+01
             4.4340000000000215E+00    4.4330000000000229E+00    2.5082000000000122E+01
             4.4340000000000215E+00    7.3890000000000358E+00    2.5082000000000122E+01
             7.1920000000000304E+00    1.4780000000000066E+00    2.5082000000000122E+01
             7.1920000000000304E+00    4.4330000000000229E+00    2.5082000000000122E+01
             7.1920000000000304E+00    7.3890000000000358E+00    2.5082000000000122E+01
             1.0148000000000049E+01    1.4780000000000066E+00    2.5082000000000122E+01
             1.0148000000000049E+01    4.4330000000000229E+00    2.5082000000000122E+01
             1.0148000000000049E+01    7.3890000000000358E+00    2.5082000000000122E+01
             1.3104000000000056E+01    1.4780000000000066E+00    2.5082000000000122E+01
             1.3104000000000056E+01    4.4330000000000229E+00    2.5082000000000122E+01
             1.3104000000000056E+01    7.3890000000000358E+00    2.5082000000000122E+01
             0.0000000000000000E+00    0.0000000000000000E+00    2.7172000000000111E+01
             0.0000000000000000E+00    2.9550000000000138E+00    2.7172000000000111E+01
             0.0000000000000000E+00    5.9110000000000209E+00    2.7172000000000111E+01
             2.9560000000000133E+00    0.0000000000000000E+00    2.7172000000000111E+01
             2.9560000000000133E+00    2.9550000000000138E+00    2.7172000000000111E+01
             2.9560000000000133E+00    5.9110000000000209E+00    2.7172000000000111E+01
             5.9120000000000266E+00    0.0000000000000000E+00    2.7172000000000111E+01
             5.9120000000000266E+00    2.9550000000000138E+00    2.7172000000000111E+01
             5.9120000000000266E+00    5.9110000000000209E+00    2.7172000000000111E+01
             8.6700000000000461E+00    0.0000000000000000E+00    2.7172000000000111E+01
             8.6700000000000461E+00    2.9550000000000138E+00    2.7172000000000111E+01
             8.6700000000000461E+00    5.9110000000000209E+00    2.7172000000000111E+01
             1.1626000000000058E+01    0.0000000000000000E+00    2.7172000000000111E+01
             1.1626000000000058E+01    2.9550000000000138E+00    2.7172000000000111E+01
             1.1626000000000058E+01    5.9110000000000209E+00    2.7172000000000111E+01
             1.4780000000000066E+00    1.4780000000000066E+00    2.9262000000000143E+01
             1.4780000000000066E+00    4.4330000000000229E+00    2.9262000000000143E+01
             1.4780000000000066E+00    7.3890000000000358E+00    2.9262000000000143E+01
             4.4340000000000215E+00    1.4780000000000066E+00    2.9262000000000143E+01
             4.4340000000000215E+00    4.4330000000000229E+00    2.9262000000000143E+01
             4.4340000000000215E+00    7.3890000000000358E+00    2.9262000000000143E+01
             7.1920000000000304E+00    1.4780000000000066E+00    2.9262000000000143E+01
             7.1920000000000304E+00    4.4330000000000229E+00    2.9262000000000143E+01
             7.1920000000000304E+00    7.3890000000000358E+00    2.9262000000000143E+01
             1.0148000000000049E+01    1.4780000000000066E+00    2.9262000000000143E+01
             1.0148000000000049E+01    4.4330000000000229E+00    2.9262000000000143E+01
             1.0148000000000049E+01    7.3890000000000358E+00    2.9262000000000143E+01
             1.3104000000000056E+01    1.4780000000000066E+00    2.9262000000000143E+01
             1.3104000000000056E+01    4.4330000000000229E+00    2.9262000000000143E+01
             1.3104000000000056E+01    7.3890000000000358E+00    2.9262000000000143E+01
             0.0000000000000000E+00    0.0000000000000000E+00    3.1352000000000135E+01
             0.0000000000000000E+00    2.9550000000000138E+00    3.1352000000000135E+01
             0.0000000000000000E+00    5.9110000000000209E+00    3.1352000000000135E+01
             2.9560000000000133E+00    0.0000000000000000E+00    3.1352000000000135E+01
             2.9560000000000133E+00    2.9550000000000138E+00    3.1352000000000135E+01
             2.9560000000000133E+00    5.9110000000000209E+00    3.1352000000000135E+01
             5.9120000000000266E+00    0.0000000000000000E+00    3.1352000000000135E+01
             5.9120000000000266E+00    2.9550000000000138E+00    3.1352000000000135E+01
             5.9120000000000266E+00    5.9110000000000209E+00    3.1352000000000135E+01
             8.6700000000000461E+00    0.0000000000000000E+00    3.1352000000000135E+01
             8.6700000000000461E+00    2.9550000000000138E+00    3.1352000000000135E+01
             8.6700000000000461E+00    5.9110000000000209E+00    3.1352000000000135E+01
             1.1626000000000058E+01    0.0000000000000000E+00    3.1352000000000135E+01
             1.1626000000000058E+01    2.9550000000000138E+00    3.1352000000000135E+01
             1.1626000000000058E+01    5.9110000000000209E+00    3.1352000000000135E+01
             1.4780000000000066E+00    1.4780000000000066E+00    3.3442000000000156E+01
             1.4780000000000066E+00    4.4330000000000229E+00    3.3442000000000156E+01
             1.4780000000000066E+00    7.3890000000000358E+00    3.3442000000000156E+01
             4.4340000000000215E+00    1.4780000000000066E+00    3.3442000000000156E+01
             4.4340000000000215E+00    4.4330000000000229E+00    3.3442000000000156E+01
             4.4340000000000215E+00    7.3890000000000358E+00    3.3442000000000156E+01
             7.1920000000000304E+00    1.4780000000000066E+00    3.3442000000000156E+01
             7.1920000000000304E+00    4.4330000000000229E+00    3.3442000000000156E+01
             7.1920000000000304E+00    7.3890000000000358E+00    3.3442000000000156E+01
             1.0148000000000049E+01    1.4780000000000066E+00    3.3442000000000156E+01
             1.0148000000000049E+01    4.4330000000000229E+00    3.3442000000000156E+01
             1.0148000000000049E+01    7.3890000000000358E+00    3.3442000000000156E+01
             1.3104000000000056E+01    1.4780000000000066E+00    3.3442000000000156E+01
             1.3104000000000056E+01    4.4330000000000229E+00    3.3442000000000156E+01
             1.3104000000000056E+01    7.3890000000000358E+00    3.3442000000000156E+01
       &END COORD
       &VELOCITY
             0.0000000000000000E+00    0.0000000000000000E+00    0.0000000000000000E+00
             0.0000000000000000E+00    0.0000000000000000E+00    0.0000000000000000E+00
             0.0000000000000000E+00    0.0000000000000000E+00    0.0000000000000000E+00
             0.0000000000000000E+00    0.0000000000000000E+00    0.0000000000000000E+00
             0.0000000000000000E+00    0.0000000000000000E+00    0.0000000000000000E+00
             0.0000000000000000E+00    0.0000000000000000E+00    0.0000000000000000E+00
             0.0000000000000000E+00    0.0000000000000000E+00    0.0000000000000000E+00
             0.0000000000000000E+00    0.0000000000000000E+00    0.0000000000000000E+00
             0.0000000000000000E+00    0.0000000000000000E+00    0.0000000000000000E+00
             0.0000000000000000E+00    0.0000000000000000E+00    0.0000000000000000E+00
             0.0000000000000000E+00    0.0000000000000000E+00    0.0000000000000000E+00
             0.0000000000000000E+00    0.0000000000000000E+00    0.0000000000000000E+00
             0.0000000000000000E+00    0.0000000000000000E+00    0.0000000000000000E+00
             0.0000000000000000E+00    0.0000000000000000E+00    0.0000000000000000E+00
             0.0000000000000000E+00    0.0000000000000000E+00    0.0000000000000000E+00
             0.0000000000000000E+00    0.0000000000000000E+00    0.0000000000000000E+00
             0.0000000000000000E+00    0.0000000000000000E+00    0.0000000000000000E+00
             0.0000000000000000E+00    0.0000000000000000E+00    0.0000000000000000E+00
             0.0000000000000000E+00    0.0000000000000000E+00    0.0000000000000000E+00
             0.0000000000000000E+00    0.0000000000000000E+00    0.0000000000000000E+00
             0.0000000000000000E+00    0.0000000000000000E+00    0.0000000000000000E+00
             0.0000000000000000E+00    0.0000000000000000E+00    0.0000000000000000E+00
             0.0000000000000000E+00    0.0000000000000000E+00    0.0000000000000000E+00
             0.0000000000000000E+00    0.0000000000000000E+00    0.0000000000000000E+00
             0.0000000000000000E+00    0.0000000000000000E+00    0.0000000000000000E+00
             0.0000000000000000E+00    0.0000000000000000E+00    0.0000000000000000E+00
             0.0000000000000000E+00    0.0000000000000000E+00    0.0000000000000000E+00
             0.0000000000000000E+00    0.0000000000000000E+00    0.0000000000000000E+00
             0.0000000000000000E+00    0.0000000000000000E+00    0.0000000000000000E+00
             0.0000000000000000E+00    0.0000000000000000E+00    0.0000000000000000E+00
             0.0000000000000000E+00    0.0000000000000000E+00    0.0000000000000000E+00
             0.0000000000000000E+00    0.0000000000000000E+00    0.0000000000000000E+00
             0.0000000000000000E+00    0.0000000000000000E+00    0.0000000000000000E+00
             0.0000000000000000E+00    0.0000000000000000E+00    0.0000000000000000E+00
             0.0000000000000000E+00    0.0000000000000000E+00    0.0000000000000000E+00
             0.0000000000000000E+00    0.0000000000000000E+00    0.0000000000000000E+00
             0.0000000000000000E+00    0.0000000000000000E+00    0.0000000000000000E+00
             0.0000000000000000E+00    0.0000000000000000E+00    0.0000000000000000E+00
             0.0000000000000000E+00    0.0000000000000000E+00    0.0000000000000000E+00
             0.0000000000000000E+00    0.0000000000000000E+00    0.0000000000000000E+00
             0.0000000000000000E+00    0.0000000000000000E+00    0.0000000000000000E+00
             0.0000000000000000E+00    0.0000000000000000E+00    0.0000000000000000E+00
             0.0000000000000000E+00    0.0000000000000000E+00    0.0000000000000000E+00
             0.0000000000000000E+00    0.0000000000000000E+00    0.0000000000000000E+00
             0.0000000000000000E+00    0.0000000000000000E+00    0.0000000000000000E+00
             0.0000000000000000E+00    0.0000000000000000E+00    0.0000000000000000E+00
             0.0000000000000000E+00    0.0000000000000000E+00    0.0000000000000000E+00
             0.0000000000000000E+00    0.0000000000000000E+00    0.0000000000000000E+00
             0.0000000000000000E+00    0.0000000000000000E+00    0.0000000000000000E+00
             0.0000000000000000E+00    0.0000000000000000E+00    0.0000000000000000E+00
             0.0000000000000000E+00    0.0000000000000000E+00    0.0000000000000000E+00
             0.0000000000000000E+00    0.0000000000000000E+00    0.0000000000000000E+00
             0.0000000000000000E+00    0.0000000000000000E+00    0.0000000000000000E+00
             0.0000000000000000E+00    0.0000000000000000E+00    0.0000000000000000E+00
             0.0000000000000000E+00    0.0000000000000000E+00    0.0000000000000000E+00
             0.0000000000000000E+00    0.0000000000000000E+00    0.0000000000000000E+00
             0.0000000000000000E+00    0.0000000000000000E+00    0.0000000000000000E+00
             0.0000000000000000E+00    0.0000000000000000E+00    0.0000000000000000E+00
             0.0000000000000000E+00    0.0000000000000000E+00    0.0000000000000000E+00
             0.0000000000000000E+00    0.0000000000000000E+00    0.0000000000000000E+00
             0.0000000000000000E+00    0.0000000000000000E+00    0.0000000000000000E+00
             0.0000000000000000E+00    0.0000000000000000E+00    0.0000000000000000E+00
             0.0000000000000000E+00    0.0000000000000000E+00    0.0000000000000000E+00
             0.0000000000000000E+00    0.0000000000000000E+00    0.0000000000000000E+00
             0.0000000000000000E+00    0.0000000000000000E+00    0.0000000000000000E+00
             0.0000000000000000E+00    0.0000000000000000E+00    0.0000000000000000E+00
             0.0000000000000000E+00    0.0000000000000000E+00    0.0000000000000000E+00
             0.0000000000000000E+00    0.0000000000000000E+00    0.0000000000000000E+00
             0.0000000000000000E+00    0.0000000000000000E+00    0.0000000000000000E+00
             0.0000000000000000E+00    0.0000000000000000E+00    0.0000000000000000E+00
             0.0000000000000000E+00    0.0000000000000000E+00    0.0000000000000000E+00
             0.0000000000000000E+00    0.0000000000000000E+00    0.0000000000000000E+00
             0.0000000000000000E+00    0.0000000000000000E+00    0.0000000000000000E+00
             0.0000000000000000E+00    0.0000000000000000E+00    0.0000000000000000E+00
             0.0000000000000000E+00    0.0000000000000000E+00    0.0000000000000000E+00
             0.0000000000000000E+00    0.0000000000000000E+00    0.0000000000000000E+00
             0.0000000000000000E+00    0.0000000000000000E+00    0.0000000000000000E+00
             0.0000000000000000E+00    0.0000000000000000E+00    0.0000000000000000E+00
             0.0000000000000000E+00    0.0000000000000000E+00    0.0000000000000000E+00
             0.0000000000000000E+00    0.0000000000000000E+00    0.0000000000000000E+00
             0.0000000000000000E+00    0.0000000000000000E+00    0.0000000000000000E+00
             0.0000000000000000E+00    0.0000000000000000E+00    0.0000000000000000E+00
             0.0000000000000000E+00    0.0000000000000000E+00    0.0000000000000000E+00
             0.0000000000000000E+00    0.0000000000000000E+00    0.0000000000000000E+00
             0.0000000000000000E+00    0.0000000000000000E+00    0.0000000000000000E+00
             0.0000000000000000E+00    0.0000000000000000E+00    0.0000000000000000E+00
             0.0000000000000000E+00    0.0000000000000000E+00    0.0000000000000000E+00
             0.0000000000000000E+00    0.0000000000000000E+00    0.0000000000000000E+00
             0.0000000000000000E+00    0.0000000000000000E+00    0.0000000000000000E+00
             0.0000000000000000E+00    0.0000000000000000E+00    0.0000000000000000E+00
             0.0000000000000000E+00    0.0000000000000000E+00    0.0000000000000000E+00
             0.0000000000000000E+00    0.0000000000000000E+00    0.0000000000000000E+00
             0.0000000000000000E+00    0.0000000000000000E+00    0.0000000000000000E+00
             0.0000000000000000E+00    0.0000000000000000E+00    0.0000000000000000E+00
             0.0000000000000000E+00    0.0000000000000000E+00    0.0000000000000000E+00
             0.0000000000000000E+00    0.0000000000000000E+00    0.0000000000000000E+00
             0.0000000000000000E+00    0.0000000000000000E+00    0.0000000000000000E+00
             0.0000000000000000E+00    0.0000000000000000E+00    0.0000000000000000E+00
             0.0000000000000000E+00    0.0000000000000000E+00    0.0000000000000000E+00
             0.0000000000000000E+00    0.0000000000000000E+00    0.0000000000000000E+00
             0.0000000000000000E+00    0.0000000000000000E+00    0.0000000000000000E+00
             0.0000000000000000E+00    0.0000000000000000E+00    0.0000000000000000E+00
             0.0000000000000000E+00    0.0000000000000000E+00    0.0000000000000000E+00
             0.0000000000000000E+00    0.0000000000000000E+00    0.0000000000000000E+00
             0.0000000000000000E+00    0.0000000000000000E+00    0.0000000000000000E+00
             0.0000000000000000E+00    0.0000000000000000E+00    0.0000000000000000E+00
             0.0000000000000000E+00    0.0000000000000000E+00    0.0000000000000000E+00
             0.0000000000000000E+00    0.0000000000000000E+00    0.0000000000000000E+00
             0.0000000000000000E+00    0.0000000000000000E+00    0.0000000000000000E+00
             0.0000000000000000E+00    0.0000000000000000E+00    0.0000000000000000E+00
             0.0000000000000000E+00    0.0000000000000000E+00    0.0000000000000000E+00
             0.0000000000000000E+00    0.0000000000000000E+00    0.0000000000000000E+00
             0.0000000000000000E+00    0.0000000000000000E+00    0.0000000000000000E+00
             0.0000000000000000E+00    0.0000000000000000E+00    0.0000000000000000E+00
             0.0000000000000000E+00    0.0000000000000000E+00    0.0000000000000000E+00
             0.0000000000000000E+00    0.0000000000000000E+00    0.0000000000000000E+00
             0.0000000000000000E+00    0.0000000000000000E+00    0.0000000000000000E+00
             0.0000000000000000E+00    0.0000000000000000E+00    0.0000000000000000E+00
             0.0000000000000000E+00    0.0000000000000000E+00    0.0000000000000000E+00
             0.0000000000000000E+00    0.0000000000000000E+00    0.0000000000000000E+00
             0.0000000000000000E+00    0.0000000000000000E+00    0.0000000000000000E+00
             0.0000000000000000E+00    0.0000000000000000E+00    0.0000000000000000E+00
             0.0000000000000000E+00    0.0000000000000000E+00    0.0000000000000000E+00
             0.0000000000000000E+00    0.0000000000000000E+00    0.0000000000000000E+00
             0.0000000000000000E+00    0.0000000000000000E+00    0.0000000000000000E+00
             0.0000000000000000E+00    0.0000000000000000E+00    0.0000000000000000E+00
             0.0000000000000000E+00    0.0000000000000000E+00    0.0000000000000000E+00
             0.0000000000000000E+00    0.0000000000000000E+00    0.0000000000000000E+00
             0.0000000000000000E+00    0.0000000000000000E+00    0.0000000000000000E+00
             0.0000000000000000E+00    0.0000000000000000E+00    0.0000000000000000E+00
             0.0000000000000000E+00    0.0000000000000000E+00    0.0000000000000000E+00
             0.0000000000000000E+00    0.0000000000000000E+00    0.0000000000000000E+00
             0.0000000000000000E+00    0.0000000000000000E+00    0.0000000000000000E+00
             0.0000000000000000E+00    0.0000000000000000E+00    0.0000000000000000E+00
             0.0000000000000000E+00    0.0000000000000000E+00    0.0000000000000000E+00
             0.0000000000000000E+00    0.0000000000000000E+00    0.0000000000000000E+00
             0.0000000000000000E+00    0.0000000000000000E+00    0.0000000000000000E+00
             0.0000000000000000E+00    0.0000000000000000E+00    0.0000000000000000E+00
             0.0000000000000000E+00    0.0000000000000000E+00    0.0000000000000000E+00
             0.0000000000000000E+00    0.0000000000000000E+00    0.0000000000000000E+00
             0.0000000000000000E+00    0.0000000000000000E+00    0.0000000000000000E+00
             0.0000000000000000E+00    0.0000000000000000E+00    0.0000000000000000E+00
             0.0000000000000000E+00    0.0000000000000000E+00    0.0000000000000000E+00
             0.0000000000000000E+00    0.0000000000000000E+00    0.0000000000000000E+00
             0.0000000000000000E+00    0.0000000000000000E+00    0.0000000000000000E+00