 # Version information for this restart file 
 # current date 2024-01-12 15:47:35.113
 # current working dir /gpfs/home/cahart/transport/melamine/au_from-h2/ci-neb/ts2/dft_leads-sz_tip-dzvp_surf-dzvp_kpoints-2-4-20_replicas-3
 # Program compiled at                              Thu 21 Sep 19:20:17 BST 2023
 # Program compiled on                                           hx1-c12-login-1
 # Program compiled for                                                    local
 # Source code revision number                                       git:5518aa6
 &GLOBAL
   EXTENDED_FFT_LENGTHS  T
   PRINT_LEVEL  MEDIUM
   PROJECT_NAME 2_dft_wfn-r-0
   OUTPUT_FILE_NAME 2_dft_wfn-r-0.out
   RUN_TYPE  BAND
 &END GLOBAL
 &MOTION
   &BAND
     NPROC_REP  64
     BAND_TYPE  CI-NEB
     NUMBER_OF_REPLICA  3
     K_SPRING     5.0000000000000003E-02
     &CI_NEB
       NSTEPS_IT  5
     &END CI_NEB
     &OPTIMIZE_BAND
       OPT_TYPE  DIIS
       &DIIS
         MAX_STEPS  1000
       &END DIIS
     &END OPTIMIZE_BAND
     &REPLICA
       &COORD
             0.0000000000000000E+00    0.0000000000000000E+00    0.0000000000000000E+00
             0.0000000000000000E+00    2.9549999999999699E+00    0.0000000000000000E+00
             0.0000000000000000E+00    5.9109999999999392E+00    0.0000000000000000E+00
             2.9559999999999702E+00    0.0000000000000000E+00    0.0000000000000000E+00
             2.9559999999999702E+00    2.9549999999999699E+00    0.0000000000000000E+00
             2.9559999999999702E+00    5.9109999999999392E+00    0.0000000000000000E+00
             5.9119999999999404E+00    0.0000000000000000E+00    0.0000000000000000E+00
             5.9119999999999404E+00    2.9549999999999699E+00    0.0000000000000000E+00
             5.9119999999999404E+00    5.9109999999999392E+00    0.0000000000000000E+00
             8.6699999999999164E+00    0.0000000000000000E+00    0.0000000000000000E+00
             8.6699999999999164E+00    2.9549999999999699E+00    0.0000000000000000E+00
             8.6699999999999164E+00    5.9109999999999392E+00    0.0000000000000000E+00
             1.1625999999999886E+01    0.0000000000000000E+00    0.0000000000000000E+00
             1.1625999999999886E+01    2.9549999999999699E+00    0.0000000000000000E+00
             1.1625999999999886E+01    5.9109999999999392E+00    0.0000000000000000E+00
             1.4779999999999851E+00    1.4779999999999851E+00    2.0899999999999794E+00
             1.4779999999999851E+00    4.4329999999999545E+00    2.0899999999999794E+00
             1.4779999999999851E+00    7.3889999999999247E+00    2.0899999999999794E+00
             4.4339999999999575E+00    1.4779999999999851E+00    2.0899999999999794E+00
             4.4339999999999575E+00    4.4329999999999545E+00    2.0899999999999794E+00
             4.4339999999999575E+00    7.3889999999999247E+00    2.0899999999999794E+00
             7.1919999999999291E+00    1.4779999999999851E+00    2.0899999999999794E+00
             7.1919999999999291E+00    4.4329999999999545E+00    2.0899999999999794E+00
             7.1919999999999291E+00    7.3889999999999247E+00    2.0899999999999794E+00
             1.0147999999999897E+01    1.4779999999999851E+00    2.0899999999999794E+00
             1.0147999999999897E+01    4.4329999999999545E+00    2.0899999999999794E+00
             1.0147999999999897E+01    7.3889999999999247E+00    2.0899999999999794E+00
             1.3103999999999864E+01    1.4779999999999851E+00    2.0899999999999794E+00
             1.3103999999999864E+01    4.4329999999999545E+00    2.0899999999999794E+00
             1.3103999999999864E+01    7.3889999999999247E+00    2.0899999999999794E+00
             0.0000000000000000E+00    0.0000000000000000E+00    4.1799999999999589E+00
             0.0000000000000000E+00    2.9549999999999699E+00    4.1799999999999589E+00
             0.0000000000000000E+00    5.9109999999999392E+00    4.1799999999999589E+00
             2.9559999999999702E+00    0.0000000000000000E+00    4.1799999999999589E+00
             2.9559999999999702E+00    2.9549999999999699E+00    4.1799999999999589E+00
             2.9559999999999702E+00    5.9109999999999392E+00    4.1799999999999589E+00
             5.9119999999999404E+00    0.0000000000000000E+00    4.1799999999999589E+00
             5.9119999999999404E+00    2.9549999999999699E+00    4.1799999999999589E+00
             5.9119999999999404E+00    5.9109999999999392E+00    4.1799999999999589E+00
             8.6699999999999164E+00    0.0000000000000000E+00    4.1799999999999589E+00
             8.6699999999999164E+00    2.9549999999999699E+00    4.1799999999999589E+00
             8.6699999999999164E+00    5.9109999999999392E+00    4.1799999999999589E+00
             1.1625999999999886E+01    0.0000000000000000E+00    4.1799999999999589E+00
             1.1625999999999886E+01    2.9549999999999699E+00    4.1799999999999589E+00
             1.1625999999999886E+01    5.9109999999999392E+00    4.1799999999999589E+00
             1.4779999999999851E+00    1.4779999999999851E+00    6.2699999999999338E+00
             1.4779999999999851E+00    4.4329999999999545E+00    6.2699999999999338E+00
             1.4779999999999851E+00    7.3889999999999247E+00    6.2699999999999338E+00
             4.4339999999999575E+00    1.4779999999999851E+00    6.2699999999999338E+00
             4.4339999999999575E+00    4.4329999999999545E+00    6.2699999999999338E+00
             4.4339999999999575E+00    7.3889999999999247E+00    6.2699999999999338E+00
             7.1919999999999291E+00    1.4779999999999851E+00    6.2699999999999338E+00
             7.1919999999999291E+00    4.4329999999999545E+00    6.2699999999999338E+00
             7.1919999999999291E+00    7.3889999999999247E+00    6.2699999999999338E+00
             1.0147999999999897E+01    1.4779999999999851E+00    6.2699999999999338E+00
             1.0147999999999897E+01    4.4329999999999545E+00    6.2699999999999338E+00
             1.0147999999999897E+01    7.3889999999999247E+00    6.2699999999999338E+00
             1.3103999999999864E+01    1.4779999999999851E+00    6.2699999999999338E+00
             1.3103999999999864E+01    4.4329999999999545E+00    6.2699999999999338E+00
             1.3103999999999864E+01    7.3889999999999247E+00    6.2699999999999338E+00
             0.0000000000000000E+00    0.0000000000000000E+00    8.3599999999999177E+00
             0.0000000000000000E+00    2.9549999999999699E+00    8.3599999999999177E+00
             0.0000000000000000E+00    5.9109999999999392E+00    8.3599999999999177E+00
             2.9559999999999702E+00    0.0000000000000000E+00    8.3599999999999177E+00
             2.9559999999999702E+00    2.9549999999999699E+00    8.3599999999999177E+00
             2.9559999999999702E+00    5.9109999999999392E+00    8.3599999999999177E+00
             5.9119999999999404E+00    0.0000000000000000E+00    8.3599999999999177E+00
             5.9119999999999404E+00    2.9549999999999699E+00    8.3599999999999177E+00
             5.9119999999999404E+00    5.9109999999999392E+00    8.3599999999999177E+00
             8.6699999999999164E+00    0.0000000000000000E+00    8.3599999999999177E+00
             8.6699999999999164E+00    2.9549999999999699E+00    8.3599999999999177E+00
             8.6699999999999164E+00    5.9109999999999392E+00    8.3599999999999177E+00
             1.1625999999999886E+01    0.0000000000000000E+00    8.3599999999999177E+00
             1.1625999999999886E+01    2.9549999999999699E+00    8.3599999999999177E+00
             1.1625999999999886E+01    5.9109999999999392E+00    8.3599999999999177E+00
             1.4779999999999851E+00    1.4779999999999851E+00    1.0449999999999893E+01
             1.4779999999999851E+00    4.4329999999999545E+00    1.0449999999999893E+01
             1.4779999999999851E+00    7.3889999999999247E+00    1.0449999999999893E+01
             4.4339999999999575E+00    1.4779999999999851E+00    1.0449999999999893E+01
             4.4339999999999575E+00    4.4329999999999545E+00    1.0449999999999893E+01
             4.4339999999999575E+00    7.3889999999999247E+00    1.0449999999999893E+01
             7.1919999999999291E+00    1.4779999999999851E+00    1.0449999999999893E+01
             7.1919999999999291E+00    4.4329999999999545E+00    1.0449999999999893E+01
             7.1919999999999291E+00    7.3889999999999247E+00    1.0449999999999893E+01
             1.0147999999999897E+01    1.4779999999999851E+00    1.0449999999999893E+01
             1.0147999999999897E+01    4.4329999999999545E+00    1.0449999999999893E+01
             1.0147999999999897E+01    7.3889999999999247E+00    1.0449999999999893E+01
             1.3103999999999864E+01    1.4779999999999851E+00    1.0449999999999893E+01
             1.3103999999999864E+01    4.4329999999999545E+00    1.0449999999999893E+01
             1.3103999999999864E+01    7.3889999999999247E+00    1.0449999999999893E+01
             4.8553999999999471E+00    5.9118999999999406E+00    1.2031799999999876E+01
             9.5279999999999028E+00    5.9136999999999391E+00    1.2033999999999882E+01
             7.1919999999999291E+00    5.9339999999999442E+00    1.2039999999999875E+01
             4.0673339927999601E+00    5.9059993219999392E+00    1.2687741368899870E+01
             1.0318905404799901E+01    5.9087793825999393E+00    1.2685747073199867E+01
             5.9989554221999386E+00    5.9152564165999388E+00    1.2792642411199870E+01
             8.3738707292999148E+00    5.9179777706999417E+00    1.2731457252199876E+01
             8.3227525761999157E+00    5.9051536094999388E+00    1.4080497642099857E+01
             5.9344285048999392E+00    5.8981604864999406E+00    1.4101749969599858E+01
             7.1039653576999289E+00    5.8899410688999412E+00    1.4828703219099840E+01
             7.2416021046999282E+00    5.8657702091999386E+00    1.6106466757299838E+01
             6.3118250322999367E+00    5.8547577070999397E+00    1.6539601306199831E+01
             9.1743570612999061E+00    5.8876302391999422E+00    1.4641017735299856E+01
             7.3119999999999266E+00    5.9339999999999442E+00    2.1042999999999786E+01
             5.8129999999999429E+00    7.4339999999999229E+00    2.2991999999999774E+01
             8.8129999999999029E+00    4.4339999999999575E+00    2.2991999999999774E+01
             5.8129999999999429E+00    4.4329999999999545E+00    2.2991999999999774E+01
             8.8129999999999029E+00    7.4339999999999229E+00    2.2991999999999774E+01
             1.4779999999999851E+00    1.4779999999999851E+00    2.5081999999999745E+01
             1.4779999999999851E+00    4.4329999999999545E+00    2.5081999999999745E+01
             1.4779999999999851E+00    7.3889999999999247E+00    2.5081999999999745E+01
             4.4339999999999575E+00    1.4779999999999851E+00    2.5081999999999745E+01
             4.4339999999999575E+00    4.4329999999999545E+00    2.5081999999999745E+01
             4.4339999999999575E+00    7.3889999999999247E+00    2.5081999999999745E+01
             7.1919999999999291E+00    1.4779999999999851E+00    2.5081999999999745E+01
             7.1919999999999291E+00    4.4329999999999545E+00    2.5081999999999745E+01
             7.1919999999999291E+00    7.3889999999999247E+00    2.5081999999999745E+01
             1.0147999999999897E+01    1.4779999999999851E+00    2.5081999999999745E+01
             1.0147999999999897E+01    4.4329999999999545E+00    2.5081999999999745E+01
             1.0147999999999897E+01    7.3889999999999247E+00    2.5081999999999745E+01
             1.3103999999999864E+01    1.4779999999999851E+00    2.5081999999999745E+01
             1.3103999999999864E+01    4.4329999999999545E+00    2.5081999999999745E+01
             1.3103999999999864E+01    7.3889999999999247E+00    2.5081999999999745E+01
             0.0000000000000000E+00    0.0000000000000000E+00    2.7171999999999731E+01
             0.0000000000000000E+00    2.9549999999999699E+00    2.7171999999999731E+01
             0.0000000000000000E+00    5.9109999999999392E+00    2.7171999999999731E+01
             2.9559999999999702E+00    0.0000000000000000E+00    2.7171999999999731E+01
             2.9559999999999702E+00    2.9549999999999699E+00    2.7171999999999731E+01
             2.9559999999999702E+00    5.9109999999999392E+00    2.7171999999999731E+01
             5.9119999999999404E+00    0.0000000000000000E+00    2.7171999999999731E+01
             5.9119999999999404E+00    2.9549999999999699E+00    2.7171999999999731E+01
             5.9119999999999404E+00    5.9109999999999392E+00    2.7171999999999731E+01
             8.6699999999999164E+00    0.0000000000000000E+00    2.7171999999999731E+01
             8.6699999999999164E+00    2.9549999999999699E+00    2.7171999999999731E+01
             8.6699999999999164E+00    5.9109999999999392E+00    2.7171999999999731E+01
             1.1625999999999886E+01    0.0000000000000000E+00    2.7171999999999731E+01
             1.1625999999999886E+01    2.9549999999999699E+00    2.7171999999999731E+01
             1.1625999999999886E+01    5.9109999999999392E+00    2.7171999999999731E+01
             1.4779999999999851E+00    1.4779999999999851E+00    2.9261999999999713E+01
             1.4779999999999851E+00    4.4329999999999545E+00    2.9261999999999713E+01
             1.4779999999999851E+00    7.3889999999999247E+00    2.9261999999999713E+01
             4.4339999999999575E+00    1.4779999999999851E+00    2.9261999999999713E+01
             4.4339999999999575E+00    4.4329999999999545E+00    2.9261999999999713E+01
             4.4339999999999575E+00    7.3889999999999247E+00    2.9261999999999713E+01
             7.1919999999999291E+00    1.4779999999999851E+00    2.9261999999999713E+01
             7.1919999999999291E+00    4.4329999999999545E+00    2.9261999999999713E+01
             7.1919999999999291E+00    7.3889999999999247E+00    2.9261999999999713E+01
             1.0147999999999897E+01    1.4779999999999851E+00    2.9261999999999713E+01
             1.0147999999999897E+01    4.4329999999999545E+00    2.9261999999999713E+01
             1.0147999999999897E+01    7.3889999999999247E+00    2.9261999999999713E+01
             1.3103999999999864E+01    1.4779999999999851E+00    2.9261999999999713E+01
             1.3103999999999864E+01    4.4329999999999545E+00    2.9261999999999713E+01
             1.3103999999999864E+01    7.3889999999999247E+00    2.9261999999999713E+01
             0.0000000000000000E+00    0.0000000000000000E+00    3.1351999999999681E+01
             0.0000000000000000E+00    2.9549999999999699E+00    3.1351999999999681E+01
             0.0000000000000000E+00    5.9109999999999392E+00    3.1351999999999681E+01
             2.9559999999999702E+00    0.0000000000000000E+00    3.1351999999999681E+01
             2.9559999999999702E+00    2.9549999999999699E+00    3.1351999999999681E+01
             2.9559999999999702E+00    5.9109999999999392E+00    3.1351999999999681E+01
             5.9119999999999404E+00    0.0000000000000000E+00    3.1351999999999681E+01
             5.9119999999999404E+00    2.9549999999999699E+00    3.1351999999999681E+01
             5.9119999999999404E+00    5.9109999999999392E+00    3.1351999999999681E+01
             8.6699999999999164E+00    0.0000000000000000E+00    3.1351999999999681E+01
             8.6699999999999164E+00    2.9549999999999699E+00    3.1351999999999681E+01
             8.6699999999999164E+00    5.9109999999999392E+00    3.1351999999999681E+01
             1.1625999999999886E+01    0.0000000000000000E+00    3.1351999999999681E+01
             1.1625999999999886E+01    2.9549999999999699E+00    3.1351999999999681E+01
             1.1625999999999886E+01    5.9109999999999392E+00    3.1351999999999681E+01
             1.4779999999999851E+00    1.4779999999999851E+00    3.3441999999999666E+01
             1.4779999999999851E+00    4.4329999999999545E+00    3.3441999999999666E+01
             1.4779999999999851E+00    7.3889999999999247E+00    3.3441999999999666E+01
             4.4339999999999575E+00    1.4779999999999851E+00    3.3441999999999666E+01
             4.4339999999999575E+00    4.4329999999999545E+00    3.3441999999999666E+01
             4.4339999999999575E+00    7.3889999999999247E+00    3.3441999999999666E+01
             7.1919999999999291E+00    1.4779999999999851E+00    3.3441999999999666E+01
             7.1919999999999291E+00    4.4329999999999545E+00    3.3441999999999666E+01
             7.1919999999999291E+00    7.3889999999999247E+00    3.3441999999999666E+01
             1.0147999999999897E+01    1.4779999999999851E+00    3.3441999999999666E+01
             1.0147999999999897E+01    4.4329999999999545E+00    3.3441999999999666E+01
             1.0147999999999897E+01    7.3889999999999247E+00    3.3441999999999666E+01
             1.3103999999999864E+01    1.4779999999999851E+00    3.3441999999999666E+01
             1.3103999999999864E+01    4.4329999999999545E+00    3.3441999999999666E+01
             1.3103999999999864E+01    7.3889999999999247E+00    3.3441999999999666E+01
       &END COORD
       &VELOCITY
             0.0000000000000000E+00    0.0000000000000000E+00    0.0000000000000000E+00
             0.0000000000000000E+00    0.0000000000000000E+00    0.0000000000000000E+00
             0.0000000000000000E+00    0.0000000000000000E+00    0.0000000000000000E+00
             0.0000000000000000E+00    0.0000000000000000E+00    0.0000000000000000E+00
             0.0000000000000000E+00    0.0000000000000000E+00    0.0000000000000000E+00
             0.0000000000000000E+00    0.0000000000000000E+00    0.0000000000000000E+00
             0.0000000000000000E+00    0.0000000000000000E+00    0.0000000000000000E+00
             0.0000000000000000E+00    0.0000000000000000E+00    0.0000000000000000E+00
             0.0000000000000000E+00    0.0000000000000000E+00    0.0000000000000000E+00
             0.0000000000000000E+00    0.0000000000000000E+00    0.0000000000000000E+00
             0.0000000000000000E+00    0.0000000000000000E+00    0.0000000000000000E+00
             0.0000000000000000E+00    0.0000000000000000E+00    0.0000000000000000E+00
             0.0000000000000000E+00    0.0000000000000000E+00    0.0000000000000000E+00
             0.0000000000000000E+00    0.0000000000000000E+00    0.0000000000000000E+00
             0.0000000000000000E+00    0.0000000000000000E+00    0.0000000000000000E+00
             0.0000000000000000E+00    0.0000000000000000E+00    0.0000000000000000E+00
             0.0000000000000000E+00    0.0000000000000000E+00    0.0000000000000000E+00
             0.0000000000000000E+00    0.0000000000000000E+00    0.0000000000000000E+00
             0.0000000000000000E+00    0.0000000000000000E+00    0.0000000000000000E+00
             0.0000000000000000E+00    0.0000000000000000E+00    0.0000000000000000E+00
             0.0000000000000000E+00    0.0000000000000000E+00    0.0000000000000000E+00
             0.0000000000000000E+00    0.0000000000000000E+00    0.0000000000000000E+00
             0.0000000000000000E+00    0.0000000000000000E+00    0.0000000000000000E+00
             0.0000000000000000E+00    0.0000000000000000E+00    0.0000000000000000E+00
             0.0000000000000000E+00    0.0000000000000000E+00    0.0000000000000000E+00
             0.0000000000000000E+00    0.0000000000000000E+00    0.0000000000000000E+00
             0.0000000000000000E+00    0.0000000000000000E+00    0.0000000000000000E+00
             0.0000000000000000E+00    0.0000000000000000E+00    0.0000000000000000E+00
             0.0000000000000000E+00    0.0000000000000000E+00    0.0000000000000000E+00
             0.0000000000000000E+00    0.0000000000000000E+00    0.0000000000000000E+00
             0.0000000000000000E+00    0.0000000000000000E+00    0.0000000000000000E+00
             0.0000000000000000E+00    0.0000000000000000E+00    0.0000000000000000E+00
             0.0000000000000000E+00    0.0000000000000000E+00    0.0000000000000000E+00
             0.0000000000000000E+00    0.0000000000000000E+00    0.0000000000000000E+00
             0.0000000000000000E+00    0.0000000000000000E+00    0.0000000000000000E+00
             0.0000000000000000E+00    0.0000000000000000E+00    0.0000000000000000E+00
             0.0000000000000000E+00    0.0000000000000000E+00    0.0000000000000000E+00
             0.0000000000000000E+00    0.0000000000000000E+00    0.0000000000000000E+00
             0.0000000000000000E+00    0.0000000000000000E+00    0.0000000000000000E+00
             0.0000000000000000E+00    0.0000000000000000E+00    0.0000000000000000E+00
             0.0000000000000000E+00    0.0000000000000000E+00    0.0000000000000000E+00
             0.0000000000000000E+00    0.0000000000000000E+00    0.0000000000000000E+00
             0.0000000000000000E+00    0.0000000000000000E+00    0.0000000000000000E+00
             0.0000000000000000E+00    0.0000000000000000E+00    0.0000000000000000E+00
             0.0000000000000000E+00    0.0000000000000000E+00    0.0000000000000000E+00
             0.0000000000000000E+00    0.0000000000000000E+00    0.0000000000000000E+00
             0.0000000000000000E+00    0.0000000000000000E+00    0.0000000000000000E+00
             0.0000000000000000E+00    0.0000000000000000E+00    0.0000000000000000E+00
             0.0000000000000000E+00    0.0000000000000000E+00    0.0000000000000000E+00
             0.0000000000000000E+00    0.0000000000000000E+00    0.0000000000000000E+00
             0.0000000000000000E+00    0.0000000000000000E+00    0.0000000000000000E+00
             0.0000000000000000E+00    0.0000000000000000E+00    0.0000000000000000E+00
             0.0000000000000000E+00    0.0000000000000000E+00    0.0000000000000000E+00
             0.0000000000000000E+00    0.0000000000000000E+00    0.0000000000000000E+00
             0.0000000000000000E+00    0.0000000000000000E+00    0.0000000000000000E+00
             0.0000000000000000E+00    0.0000000000000000E+00    0.0000000000000000E+00
             0.0000000000000000E+00    0.0000000000000000E+00    0.0000000000000000E+00
             0.0000000000000000E+00    0.0000000000000000E+00    0.0000000000000000E+00
             0.0000000000000000E+00    0.0000000000000000E+00    0.0000000000000000E+00
             0.0000000000000000E+00    0.0000000000000000E+00    0.0000000000000000E+00
             0.0000000000000000E+00    0.0000000000000000E+00    0.0000000000000000E+00
             0.0000000000000000E+00    0.0000000000000000E+00    0.0000000000000000E+00
             0.0000000000000000E+00    0.0000000000000000E+00    0.0000000000000000E+00
             0.0000000000000000E+00    0.0000000000000000E+00    0.0000000000000000E+00
             0.0000000000000000E+00    0.0000000000000000E+00    0.0000000000000000E+00
             0.0000000000000000E+00    0.0000000000000000E+00    0.0000000000000000E+00
             0.0000000000000000E+00    0.0000000000000000E+00    0.0000000000000000E+00
             0.0000000000000000E+00    0.0000000000000000E+00    0.0000000000000000E+00
             0.0000000000000000E+00    0.0000000000000000E+00    0.0000000000000000E+00
             0.0000000000000000E+00    0.0000000000000000E+00    0.0000000000000000E+00
             0.0000000000000000E+00    0.0000000000000000E+00    0.0000000000000000E+00
             0.0000000000000000E+00    0.0000000000000000E+00    0.0000000000000000E+00
             0.0000000000000000E+00    0.0000000000000000E+00    0.0000000000000000E+00
             0.0000000000000000E+00    0.0000000000000000E+00    0.0000000000000000E+00
             0.0000000000000000E+00    0.0000000000000000E+00    0.0000000000000000E+00
             0.0000000000000000E+00    0.0000000000000000E+00    0.0000000000000000E+00
             0.0000000000000000E+00    0.0000000000000000E+00    0.0000000000000000E+00
             0.0000000000000000E+00    0.0000000000000000E+00    0.0000000000000000E+00
             0.0000000000000000E+00    0.0000000000000000E+00    0.0000000000000000E+00
             0.0000000000000000E+00    0.0000000000000000E+00    0.0000000000000000E+00
             0.0000000000000000E+00    0.0000000000000000E+00    0.0000000000000000E+00
             0.0000000000000000E+00    0.0000000000000000E+00    0.0000000000000000E+00
             0.0000000000000000E+00    0.0000000000000000E+00    0.0000000000000000E+00
             0.0000000000000000E+00    0.0000000000000000E+00    0.0000000000000000E+00
             0.0000000000000000E+00    0.0000000000000000E+00    0.0000000000000000E+00
             0.0000000000000000E+00    0.0000000000000000E+00    0.0000000000000000E+00
             0.0000000000000000E+00    0.0000000000000000E+00    0.0000000000000000E+00
             0.0000000000000000E+00    0.0000000000000000E+00    0.0000000000000000E+00
             0.0000000000000000E+00    0.0000000000000000E+00    0.0000000000000000E+00
             0.0000000000000000E+00    0.0000000000000000E+00    0.0000000000000000E+00
             0.0000000000000000E+00    0.0000000000000000E+00    0.0000000000000000E+00
             0.0000000000000000E+00    0.0000000000000000E+00    0.0000000000000000E+00
             0.0000000000000000E+00    0.0000000000000000E+00    0.0000000000000000E+00
             0.0000000000000000E+00    0.0000000000000000E+00    0.0000000000000000E+00
             0.0000000000000000E+00    0.0000000000000000E+00    0.0000000000000000E+00
             0.0000000000000000E+00    0.0000000000000000E+00    0.0000000000000000E+00
             0.0000000000000000E+00    0.0000000000000000E+00    0.0000000000000000E+00
             0.0000000000000000E+00    0.0000000000000000E+00    0.0000000000000000E+00
             0.0000000000000000E+00    0.0000000000000000E+00    0.0000000000000000E+00
             0.0000000000000000E+00    0.0000000000000000E+00    0.0000000000000000E+00
             0.0000000000000000E+00    0.0000000000000000E+00    0.0000000000000000E+00
             0.0000000000000000E+00    0.0000000000000000E+00    0.0000000000000000E+00
             0.0000000000000000E+00    0.0000000000000000E+00    0.0000000000000000E+00
             0.0000000000000000E+00    0.0000000000000000E+00    0.0000000000000000E+00
             0.0000000000000000E+00    0.0000000000000000E+00    0.0000000000000000E+00
             0.0000000000000000E+00    0.0000000000000000E+00    0.0000000000000000E+00
             0.0000000000000000E+00    0.0000000000000000E+00    0.0000000000000000E+00
             0.0000000000000000E+00    0.0000000000000000E+00    0.0000000000000000E+00
             0.0000000000000000E+00    0.0000000000000000E+00    0.0000000000000000E+00
             0.0000000000000000E+00    0.0000000000000000E+00    0.0000000000000000E+00
             0.0000000000000000E+00    0.0000000000000000E+00    0.0000000000000000E+00
             0.0000000000000000E+00    0.0000000000000000E+00    0.0000000000000000E+00
             0.0000000000000000E+00    0.0000000000000000E+00    0.0000000000000000E+00
             0.0000000000000000E+00    0.0000000000000000E+00    0.0000000000000000E+00
             0.0000000000000000E+00    0.0000000000000000E+00    0.0000000000000000E+00
             0.0000000000000000E+00    0.0000000000000000E+00    0.0000000000000000E+00
             0.0000000000000000E+00    0.0000000000000000E+00    0.0000000000000000E+00
             0.0000000000000000E+00    0.0000000000000000E+00    0.0000000000000000E+00
             0.0000000000000000E+00    0.0000000000000000E+00    0.0000000000000000E+00
             0.0000000000000000E+00    0.0000000000000000E+00    0.0000000000000000E+00
             0.0000000000000000E+00    0.0000000000000000E+00    0.0000000000000000E+00
             0.0000000000000000E+00    0.0000000000000000E+00    0.0000000000000000E+00
             0.0000000000000000E+00    0.0000000000000000E+00    0.0000000000000000E+00
             0.0000000000000000E+00    0.0000000000000000E+00    0.0000000000000000E+00
             0.0000000000000000E+00    0.0000000000000000E+00    0.0000000000000000E+00
             0.0000000000000000E+00    0.0000000000000000E+00    0.0000000000000000E+00
             0.0000000000000000E+00    0.0000000000000000E+00    0.0000000000000000E+00
             0.0000000000000000E+00    0.0000000000000000E+00    0.0000000000000000E+00
             0.0000000000000000E+00    0.0000000000000000E+00    0.0000000000000000E+00
             0.0000000000000000E+00    0.0000000000000000E+00    0.0000000000000000E+00
             0.0000000000000000E+00    0.0000000000000000E+00    0.0000000000000000E+00
             0.0000000000000000E+00    0.0000000000000000E+00    0.0000000000000000E+00
             0.0000000000000000E+00    0.0000000000000000E+00    0.0000000000000000E+00
             0.0000000000000000E+00    0.0000000000000000E+00    0.0000000000000000E+00
             0.0000000000000000E+00    0.0000000000000000E+00    0.0000000000000000E+00
             0.0000000000000000E+00    0.0000000000000000E+00    0.0000000000000000E+00
             0.0000000000000000E+00    0.0000000000000000E+00    0.0000000000000000E+00
             0.0000000000000000E+00    0.0000000000000000E+00    0.0000000000000000E+00
             0.0000000000000000E+00    0.0000000000000000E+00    0.0000000000000000E+00
             0.0000000000000000E+00    0.0000000000000000E+00    0.0000000000000000E+00
             0.0000000000000000E+00    0.0000000000000000E+00    0.0000000000000000E+00
             0.0000000000000000E+00    0.0000000000000000E+00    0.0000000000000000E+00
             0.0000000000000000E+00    0.0000000000000000E+00    0.0000000000000000E+00
             0.0000000000000000E+00    0.0000000000000000E+00    0.0000000000000000E+00
             0.0000000000000000E+00    0.0000000000000000E+00    0.0000000000000000E+00