 # Version information for this restart file 
 # current date 2024-01-12 23:16:31.518
 # current working dir /gpfs/home/cahart/transport/melamine/au_from-h2/ci-neb/ts2/dft_leads-sz_tip-dzvp_surf-dzvp_kpoints-2-4-20_replicas-3
 # Program compiled at                              Thu 21 Sep 19:20:17 BST 2023
 # Program compiled on                                           hx1-c12-login-1
 # Program compiled for                                                    local
 # Source code revision number                                       git:5518aa6
 &GLOBAL
   EXTENDED_FFT_LENGTHS  T
   PRINT_LEVEL  MEDIUM
   PROJECT_NAME 2_dft_wfn-r-0
   OUTPUT_FILE_NAME 2_dft_wfn-r-0.out
   RUN_TYPE  BAND
 &END GLOBAL
 &MOTION
   &BAND
     NPROC_REP  64
     BAND_TYPE  CI-NEB
     NUMBER_OF_REPLICA  3
     K_SPRING     5.0000000000000003E-02
     &CI_NEB
       NSTEPS_IT  5
     &END CI_NEB
     &OPTIMIZE_BAND
       OPT_TYPE  DIIS
       &DIIS
         MAX_STEPS  1000
       &END DIIS
     &END OPTIMIZE_BAND
     &REPLICA
       &COORD
             0.0000000000000000E+00    0.0000000000000000E+00    0.0000000000000000E+00
             0.0000000000000000E+00    2.9550000000000103E+00    0.0000000000000000E+00
             0.0000000000000000E+00    5.9110000000000156E+00    0.0000000000000000E+00
             2.9560000000000102E+00    0.0000000000000000E+00    0.0000000000000000E+00
             2.9560000000000102E+00    2.9550000000000103E+00    0.0000000000000000E+00
             2.9560000000000102E+00    5.9110000000000156E+00    0.0000000000000000E+00
             5.9120000000000203E+00    0.0000000000000000E+00    0.0000000000000000E+00
             5.9120000000000203E+00    2.9550000000000103E+00    0.0000000000000000E+00
             5.9120000000000203E+00    5.9110000000000156E+00    0.0000000000000000E+00
             8.6700000000000319E+00    0.0000000000000000E+00    0.0000000000000000E+00
             8.6700000000000319E+00    2.9550000000000103E+00    0.0000000000000000E+00
             8.6700000000000319E+00    5.9110000000000156E+00    0.0000000000000000E+00
             1.1626000000000044E+01    0.0000000000000000E+00    0.0000000000000000E+00
             1.1626000000000044E+01    2.9550000000000103E+00    0.0000000000000000E+00
             1.1626000000000044E+01    5.9110000000000156E+00    0.0000000000000000E+00
             1.4780000000000051E+00    1.4780000000000051E+00    2.0900000000000079E+00
             1.4780000000000051E+00    4.4330000000000194E+00    2.0900000000000079E+00
             1.4780000000000051E+00    7.3890000000000269E+00    2.0900000000000079E+00
             4.4340000000000162E+00    1.4780000000000051E+00    2.0900000000000079E+00
             4.4340000000000162E+00    4.4330000000000194E+00    2.0900000000000079E+00
             4.4340000000000162E+00    7.3890000000000269E+00    2.0900000000000079E+00
             7.1920000000000233E+00    1.4780000000000051E+00    2.0900000000000079E+00
             7.1920000000000233E+00    4.4330000000000194E+00    2.0900000000000079E+00
             7.1920000000000233E+00    7.3890000000000269E+00    2.0900000000000079E+00
             1.0148000000000035E+01    1.4780000000000051E+00    2.0900000000000079E+00
             1.0148000000000035E+01    4.4330000000000194E+00    2.0900000000000079E+00
             1.0148000000000035E+01    7.3890000000000269E+00    2.0900000000000079E+00
             1.3104000000000042E+01    1.4780000000000051E+00    2.0900000000000079E+00
             1.3104000000000042E+01    4.4330000000000194E+00    2.0900000000000079E+00
             1.3104000000000042E+01    7.3890000000000269E+00    2.0900000000000079E+00
             0.0000000000000000E+00    0.0000000000000000E+00    4.1800000000000157E+00
             0.0000000000000000E+00    2.9550000000000103E+00    4.1800000000000157E+00
             0.0000000000000000E+00    5.9110000000000156E+00    4.1800000000000157E+00
             2.9560000000000102E+00    0.0000000000000000E+00    4.1800000000000157E+00
             2.9560000000000102E+00    2.9550000000000103E+00    4.1800000000000157E+00
             2.9560000000000102E+00    5.9110000000000156E+00    4.1800000000000157E+00
             5.9120000000000203E+00    0.0000000000000000E+00    4.1800000000000157E+00
             5.9120000000000203E+00    2.9550000000000103E+00    4.1800000000000157E+00
             5.9120000000000203E+00    5.9110000000000156E+00    4.1800000000000157E+00
             8.6700000000000319E+00    0.0000000000000000E+00    4.1800000000000157E+00
             8.6700000000000319E+00    2.9550000000000103E+00    4.1800000000000157E+00
             8.6700000000000319E+00    5.9110000000000156E+00    4.1800000000000157E+00
             1.1626000000000044E+01    0.0000000000000000E+00    4.1800000000000157E+00
             1.1626000000000044E+01    2.9550000000000103E+00    4.1800000000000157E+00
             1.1626000000000044E+01    5.9110000000000156E+00    4.1800000000000157E+00
             1.4780000000000051E+00    1.4780000000000051E+00    6.2700000000000182E+00
             1.4780000000000051E+00    4.4330000000000194E+00    6.2700000000000182E+00
             1.4780000000000051E+00    7.3890000000000269E+00    6.2700000000000182E+00
             4.4340000000000162E+00    1.4780000000000051E+00    6.2700000000000182E+00
             4.4340000000000162E+00    4.4330000000000194E+00    6.2700000000000182E+00
             4.4340000000000162E+00    7.3890000000000269E+00    6.2700000000000182E+00
             7.1920000000000233E+00    1.4780000000000051E+00    6.2700000000000182E+00
             7.1920000000000233E+00    4.4330000000000194E+00    6.2700000000000182E+00
             7.1920000000000233E+00    7.3890000000000269E+00    6.2700000000000182E+00
             1.0148000000000035E+01    1.4780000000000051E+00    6.2700000000000182E+00
             1.0148000000000035E+01    4.4330000000000194E+00    6.2700000000000182E+00
             1.0148000000000035E+01    7.3890000000000269E+00    6.2700000000000182E+00
             1.3104000000000042E+01    1.4780000000000051E+00    6.2700000000000182E+00
             1.3104000000000042E+01    4.4330000000000194E+00    6.2700000000000182E+00
             1.3104000000000042E+01    7.3890000000000269E+00    6.2700000000000182E+00
             0.0000000000000000E+00    0.0000000000000000E+00    8.3600000000000314E+00
             0.0000000000000000E+00    2.9550000000000103E+00    8.3600000000000314E+00
             0.0000000000000000E+00    5.9110000000000156E+00    8.3600000000000314E+00
             2.9560000000000102E+00    0.0000000000000000E+00    8.3600000000000314E+00
             2.9560000000000102E+00    2.9550000000000103E+00    8.3600000000000314E+00
             2.9560000000000102E+00    5.9110000000000156E+00    8.3600000000000314E+00
             5.9120000000000203E+00    0.0000000000000000E+00    8.3600000000000314E+00
             5.9120000000000203E+00    2.9550000000000103E+00    8.3600000000000314E+00
             5.9120000000000203E+00    5.9110000000000156E+00    8.3600000000000314E+00
             8.6700000000000319E+00    0.0000000000000000E+00    8.3600000000000314E+00
             8.6700000000000319E+00    2.9550000000000103E+00    8.3600000000000314E+00
             8.6700000000000319E+00    5.9110000000000156E+00    8.3600000000000314E+00
             1.1626000000000044E+01    0.0000000000000000E+00    8.3600000000000314E+00
             1.1626000000000044E+01    2.9550000000000103E+00    8.3600000000000314E+00
             1.1626000000000044E+01    5.9110000000000156E+00    8.3600000000000314E+00
             1.4780000000000051E+00    1.4780000000000051E+00    1.0450000000000035E+01
             1.4780000000000051E+00    4.4330000000000194E+00    1.0450000000000035E+01
             1.4780000000000051E+00    7.3890000000000269E+00    1.0450000000000035E+01
             4.4340000000000162E+00    1.4780000000000051E+00    1.0450000000000035E+01
             4.4340000000000162E+00    4.4330000000000194E+00    1.0450000000000035E+01
             4.4340000000000162E+00    7.3890000000000269E+00    1.0450000000000035E+01
             7.1920000000000233E+00    1.4780000000000051E+00    1.0450000000000035E+01
             7.1920000000000233E+00    4.4330000000000194E+00    1.0450000000000035E+01
             7.1920000000000233E+00    7.3890000000000269E+00    1.0450000000000035E+01
             1.0148000000000035E+01    1.4780000000000051E+00    1.0450000000000035E+01
             1.0148000000000035E+01    4.4330000000000194E+00    1.0450000000000035E+01
             1.0148000000000035E+01    7.3890000000000269E+00    1.0450000000000035E+01
             1.3104000000000042E+01    1.4780000000000051E+00    1.0450000000000035E+01
             1.3104000000000042E+01    4.4330000000000194E+00    1.0450000000000035E+01
             1.3104000000000042E+01    7.3890000000000269E+00    1.0450000000000035E+01
             4.8554000000000110E+00    5.9119000000000232E+00    1.2031800000000040E+01
             9.5280000000000342E+00    5.9137000000000182E+00    1.2034000000000038E+01
             7.1920000000000233E+00    5.9340000000000241E+00    1.2040000000000047E+01
             4.0673339928000161E+00    5.9059993220000164E+00    1.2687741368900046E+01
             1.0318905404800038E+01    5.9087793826000148E+00    1.2685747073200043E+01
             5.9989554222000212E+00    5.9152564166000197E+00    1.2792642411200040E+01
             8.3738707293000303E+00    5.9179777707000207E+00    1.2731457252200048E+01
             8.3227525762000294E+00    5.9051536095000170E+00    1.4080497642100049E+01
             5.9344285049000192E+00    5.8981604865000206E+00    1.4101749969600046E+01
             7.1039653577000275E+00    5.8899410689000211E+00    1.4828703219100039E+01
             7.2416021047000285E+00    5.8657702092000159E+00    1.6106466757300055E+01
             6.3118250323000193E+00    5.8547577071000170E+00    1.6539601306200058E+01
             9.1743570613000323E+00    5.8876302392000195E+00    1.4641017735300048E+01
             7.3120000000000278E+00    5.9340000000000241E+00    2.1043000000000067E+01
             5.8130000000000219E+00    7.4340000000000241E+00    2.2992000000000079E+01
             8.8130000000000255E+00    4.4340000000000162E+00    2.2992000000000079E+01
             5.8130000000000219E+00    4.4330000000000194E+00    2.2992000000000079E+01
             8.8130000000000255E+00    7.4340000000000241E+00    2.2992000000000079E+01
             1.4780000000000051E+00    1.4780000000000051E+00    2.5082000000000093E+01
             1.4780000000000051E+00    4.4330000000000194E+00    2.5082000000000093E+01
             1.4780000000000051E+00    7.3890000000000269E+00    2.5082000000000093E+01
             4.4340000000000162E+00    1.4780000000000051E+00    2.5082000000000093E+01
             4.4340000000000162E+00    4.4330000000000194E+00    2.5082000000000093E+01
             4.4340000000000162E+00    7.3890000000000269E+00    2.5082000000000093E+01
             7.1920000000000233E+00    1.4780000000000051E+00    2.5082000000000093E+01
             7.1920000000000233E+00    4.4330000000000194E+00    2.5082000000000093E+01
             7.1920000000000233E+00    7.3890000000000269E+00    2.5082000000000093E+01
             1.0148000000000035E+01    1.4780000000000051E+00    2.5082000000000093E+01
             1.0148000000000035E+01    4.4330000000000194E+00    2.5082000000000093E+01
             1.0148000000000035E+01    7.3890000000000269E+00    2.5082000000000093E+01
             1.3104000000000042E+01    1.4780000000000051E+00    2.5082000000000093E+01
             1.3104000000000042E+01    4.4330000000000194E+00    2.5082000000000093E+01
             1.3104000000000042E+01    7.3890000000000269E+00    2.5082000000000093E+01
             0.0000000000000000E+00    0.0000000000000000E+00    2.7172000000000082E+01
             0.0000000000000000E+00    2.9550000000000103E+00    2.7172000000000082E+01
             0.0000000000000000E+00    5.9110000000000156E+00    2.7172000000000082E+01
             2.9560000000000102E+00    0.0000000000000000E+00    2.7172000000000082E+01
             2.9560000000000102E+00    2.9550000000000103E+00    2.7172000000000082E+01
             2.9560000000000102E+00    5.9110000000000156E+00    2.7172000000000082E+01
             5.9120000000000203E+00    0.0000000000000000E+00    2.7172000000000082E+01
             5.9120000000000203E+00    2.9550000000000103E+00    2.7172000000000082E+01
             5.9120000000000203E+00    5.9110000000000156E+00    2.7172000000000082E+01
             8.6700000000000319E+00    0.0000000000000000E+00    2.7172000000000082E+01
             8.6700000000000319E+00    2.9550000000000103E+00    2.7172000000000082E+01
             8.6700000000000319E+00    5.9110000000000156E+00    2.7172000000000082E+01
             1.1626000000000044E+01    0.0000000000000000E+00    2.7172000000000082E+01
             1.1626000000000044E+01    2.9550000000000103E+00    2.7172000000000082E+01
             1.1626000000000044E+01    5.9110000000000156E+00    2.7172000000000082E+01
             1.4780000000000051E+00    1.4780000000000051E+00    2.9262000000000107E+01
             1.4780000000000051E+00    4.4330000000000194E+00    2.9262000000000107E+01
             1.4780000000000051E+00    7.3890000000000269E+00    2.9262000000000107E+01
             4.4340000000000162E+00    1.4780000000000051E+00    2.9262000000000107E+01
             4.4340000000000162E+00    4.4330000000000194E+00    2.9262000000000107E+01
             4.4340000000000162E+00    7.3890000000000269E+00    2.9262000000000107E+01
             7.1920000000000233E+00    1.4780000000000051E+00    2.9262000000000107E+01
             7.1920000000000233E+00    4.4330000000000194E+00    2.9262000000000107E+01
             7.1920000000000233E+00    7.3890000000000269E+00    2.9262000000000107E+01
             1.0148000000000035E+01    1.4780000000000051E+00    2.9262000000000107E+01
             1.0148000000000035E+01    4.4330000000000194E+00    2.9262000000000107E+01
             1.0148000000000035E+01    7.3890000000000269E+00    2.9262000000000107E+01
             1.3104000000000042E+01    1.4780000000000051E+00    2.9262000000000107E+01
             1.3104000000000042E+01    4.4330000000000194E+00    2.9262000000000107E+01
             1.3104000000000042E+01    7.3890000000000269E+00    2.9262000000000107E+01
             0.0000000000000000E+00    0.0000000000000000E+00    3.1352000000000100E+01
             0.0000000000000000E+00    2.9550000000000103E+00    3.1352000000000100E+01
             0.0000000000000000E+00    5.9110000000000156E+00    3.1352000000000100E+01
             2.9560000000000102E+00    0.0000000000000000E+00    3.1352000000000100E+01
             2.9560000000000102E+00    2.9550000000000103E+00    3.1352000000000100E+01
             2.9560000000000102E+00    5.9110000000000156E+00    3.1352000000000100E+01
             5.9120000000000203E+00    0.0000000000000000E+00    3.1352000000000100E+01
             5.9120000000000203E+00    2.9550000000000103E+00    3.1352000000000100E+01
             5.9120000000000203E+00    5.9110000000000156E+00    3.1352000000000100E+01
             8.6700000000000319E+00    0.0000000000000000E+00    3.1352000000000100E+01
             8.6700000000000319E+00    2.9550000000000103E+00    3.1352000000000100E+01
             8.6700000000000319E+00    5.9110000000000156E+00    3.1352000000000100E+01
             1.1626000000000044E+01    0.0000000000000000E+00    3.1352000000000100E+01
             1.1626000000000044E+01    2.9550000000000103E+00    3.1352000000000100E+01
             1.1626000000000044E+01    5.9110000000000156E+00    3.1352000000000100E+01
             1.4780000000000051E+00    1.4780000000000051E+00    3.3442000000000121E+01
             1.4780000000000051E+00    4.4330000000000194E+00    3.3442000000000121E+01
             1.4780000000000051E+00    7.3890000000000269E+00    3.3442000000000121E+01
             4.4340000000000162E+00    1.4780000000000051E+00    3.3442000000000121E+01
             4.4340000000000162E+00    4.4330000000000194E+00    3.3442000000000121E+01
             4.4340000000000162E+00    7.3890000000000269E+00    3.3442000000000121E+01
             7.1920000000000233E+00    1.4780000000000051E+00    3.3442000000000121E+01
             7.1920000000000233E+00    4.4330000000000194E+00    3.3442000000000121E+01
             7.1920000000000233E+00    7.3890000000000269E+00    3.3442000000000121E+01
             1.0148000000000035E+01    1.4780000000000051E+00    3.3442000000000121E+01
             1.0148000000000035E+01    4.4330000000000194E+00    3.3442000000000121E+01
             1.0148000000000035E+01    7.3890000000000269E+00    3.3442000000000121E+01
             1.3104000000000042E+01    1.4780000000000051E+00    3.3442000000000121E+01
             1.3104000000000042E+01    4.4330000000000194E+00    3.3442000000000121E+01
             1.3104000000000042E+01    7.3890000000000269E+00    3.3442000000000121E+01
       &END COORD
       &VELOCITY
             0.0000000000000000E+00    0.0000000000000000E+00    0.0000000000000000E+00
             0.0000000000000000E+00    0.0000000000000000E+00    0.0000000000000000E+00
             0.0000000000000000E+00    0.0000000000000000E+00    0.0000000000000000E+00
             0.0000000000000000E+00    0.0000000000000000E+00    0.0000000000000000E+00
             0.0000000000000000E+00    0.0000000000000000E+00    0.0000000000000000E+00
             0.0000000000000000E+00    0.0000000000000000E+00    0.0000000000000000E+00
             0.0000000000000000E+00    0.0000000000000000E+00    0.0000000000000000E+00
             0.0000000000000000E+00    0.0000000000000000E+00    0.0000000000000000E+00
             0.0000000000000000E+00    0.0000000000000000E+00    0.0000000000000000E+00
             0.0000000000000000E+00    0.0000000000000000E+00    0.0000000000000000E+00
             0.0000000000000000E+00    0.0000000000000000E+00    0.0000000000000000E+00
             0.0000000000000000E+00    0.0000000000000000E+00    0.0000000000000000E+00
             0.0000000000000000E+00    0.0000000000000000E+00    0.0000000000000000E+00
             0.0000000000000000E+00    0.0000000000000000E+00    0.0000000000000000E+00
             0.0000000000000000E+00    0.0000000000000000E+00    0.0000000000000000E+00
             0.0000000000000000E+00    0.0000000000000000E+00    0.0000000000000000E+00
             0.0000000000000000E+00    0.0000000000000000E+00    0.0000000000000000E+00
             0.0000000000000000E+00    0.0000000000000000E+00    0.0000000000000000E+00
             0.0000000000000000E+00    0.0000000000000000E+00    0.0000000000000000E+00
             0.0000000000000000E+00    0.0000000000000000E+00    0.0000000000000000E+00
             0.0000000000000000E+00    0.0000000000000000E+00    0.0000000000000000E+00
             0.0000000000000000E+00    0.0000000000000000E+00    0.0000000000000000E+00
             0.0000000000000000E+00    0.0000000000000000E+00    0.0000000000000000E+00
             0.0000000000000000E+00    0.0000000000000000E+00    0.0000000000000000E+00
             0.0000000000000000E+00    0.0000000000000000E+00    0.0000000000000000E+00
             0.0000000000000000E+00    0.0000000000000000E+00    0.0000000000000000E+00
             0.0000000000000000E+00    0.0000000000000000E+00    0.0000000000000000E+00
             0.0000000000000000E+00    0.0000000000000000E+00    0.0000000000000000E+00
             0.0000000000000000E+00    0.0000000000000000E+00    0.0000000000000000E+00
             0.0000000000000000E+00    0.0000000000000000E+00    0.0000000000000000E+00
             0.0000000000000000E+00    0.0000000000000000E+00    0.0000000000000000E+00
             0.0000000000000000E+00    0.0000000000000000E+00    0.0000000000000000E+00
             0.0000000000000000E+00    0.0000000000000000E+00    0.0000000000000000E+00
             0.0000000000000000E+00    0.0000000000000000E+00    0.0000000000000000E+00
             0.0000000000000000E+00    0.0000000000000000E+00    0.0000000000000000E+00
             0.0000000000000000E+00    0.0000000000000000E+00    0.0000000000000000E+00
             0.0000000000000000E+00    0.0000000000000000E+00    0.0000000000000000E+00
             0.0000000000000000E+00    0.0000000000000000E+00    0.0000000000000000E+00
             0.0000000000000000E+00    0.0000000000000000E+00    0.0000000000000000E+00
             0.0000000000000000E+00    0.0000000000000000E+00    0.0000000000000000E+00
             0.0000000000000000E+00    0.0000000000000000E+00    0.0000000000000000E+00
             0.0000000000000000E+00    0.0000000000000000E+00    0.0000000000000000E+00
             0.0000000000000000E+00    0.0000000000000000E+00    0.0000000000000000E+00
             0.0000000000000000E+00    0.0000000000000000E+00    0.0000000000000000E+00
             0.0000000000000000E+00    0.0000000000000000E+00    0.0000000000000000E+00
             0.0000000000000000E+00    0.0000000000000000E+00    0.0000000000000000E+00
             0.0000000000000000E+00    0.0000000000000000E+00    0.0000000000000000E+00
             0.0000000000000000E+00    0.0000000000000000E+00    0.0000000000000000E+00
             0.0000000000000000E+00    0.0000000000000000E+00    0.0000000000000000E+00
             0.0000000000000000E+00    0.0000000000000000E+00    0.0000000000000000E+00
             0.0000000000000000E+00    0.0000000000000000E+00    0.0000000000000000E+00
             0.0000000000000000E+00    0.0000000000000000E+00    0.0000000000000000E+00
             0.0000000000000000E+00    0.0000000000000000E+00    0.0000000000000000E+00
             0.0000000000000000E+00    0.0000000000000000E+00    0.0000000000000000E+00
             0.0000000000000000E+00    0.0000000000000000E+00    0.0000000000000000E+00
             0.0000000000000000E+00    0.0000000000000000E+00    0.0000000000000000E+00
             0.0000000000000000E+00    0.0000000000000000E+00    0.0000000000000000E+00
             0.0000000000000000E+00    0.0000000000000000E+00    0.0000000000000000E+00
             0.0000000000000000E+00    0.0000000000000000E+00    0.0000000000000000E+00
             0.0000000000000000E+00    0.0000000000000000E+00    0.0000000000000000E+00
             0.0000000000000000E+00    0.0000000000000000E+00    0.0000000000000000E+00
             0.0000000000000000E+00    0.0000000000000000E+00    0.0000000000000000E+00
             0.0000000000000000E+00    0.0000000000000000E+00    0.0000000000000000E+00
             0.0000000000000000E+00    0.0000000000000000E+00    0.0000000000000000E+00
             0.0000000000000000E+00    0.0000000000000000E+00    0.0000000000000000E+00
             0.0000000000000000E+00    0.0000000000000000E+00    0.0000000000000000E+00
             0.0000000000000000E+00    0.0000000000000000E+00    0.0000000000000000E+00
             0.0000000000000000E+00    0.0000000000000000E+00    0.0000000000000000E+00
             0.0000000000000000E+00    0.0000000000000000E+00    0.0000000000000000E+00
             0.0000000000000000E+00    0.0000000000000000E+00    0.0000000000000000E+00
             0.0000000000000000E+00    0.0000000000000000E+00    0.0000000000000000E+00
             0.0000000000000000E+00    0.0000000000000000E+00    0.0000000000000000E+00
             0.0000000000000000E+00    0.0000000000000000E+00    0.0000000000000000E+00
             0.0000000000000000E+00    0.0000000000000000E+00    0.0000000000000000E+00
             0.0000000000000000E+00    0.0000000000000000E+00    0.0000000000000000E+00
             0.0000000000000000E+00    0.0000000000000000E+00    0.0000000000000000E+00
             0.0000000000000000E+00    0.0000000000000000E+00    0.0000000000000000E+00
             0.0000000000000000E+00    0.0000000000000000E+00    0.0000000000000000E+00
             0.0000000000000000E+00    0.0000000000000000E+00    0.0000000000000000E+00
             0.0000000000000000E+00    0.0000000000000000E+00    0.0000000000000000E+00
             0.0000000000000000E+00    0.0000000000000000E+00    0.0000000000000000E+00
             0.0000000000000000E+00    0.0000000000000000E+00    0.0000000000000000E+00
             0.0000000000000000E+00    0.0000000000000000E+00    0.0000000000000000E+00
             0.0000000000000000E+00    0.0000000000000000E+00    0.0000000000000000E+00
             0.0000000000000000E+00    0.0000000000000000E+00    0.0000000000000000E+00
             0.0000000000000000E+00    0.0000000000000000E+00    0.0000000000000000E+00
             0.0000000000000000E+00    0.0000000000000000E+00    0.0000000000000000E+00
             0.0000000000000000E+00    0.0000000000000000E+00    0.0000000000000000E+00
             0.0000000000000000E+00    0.0000000000000000E+00    0.0000000000000000E+00
             0.0000000000000000E+00    0.0000000000000000E+00    0.0000000000000000E+00
             0.0000000000000000E+00    0.0000000000000000E+00    0.0000000000000000E+00
             0.0000000000000000E+00    0.0000000000000000E+00    0.0000000000000000E+00
             0.0000000000000000E+00    0.0000000000000000E+00    0.0000000000000000E+00
             0.0000000000000000E+00    0.0000000000000000E+00    0.0000000000000000E+00
             0.0000000000000000E+00    0.0000000000000000E+00    0.0000000000000000E+00
             0.0000000000000000E+00    0.0000000000000000E+00    0.0000000000000000E+00
             0.0000000000000000E+00    0.0000000000000000E+00    0.0000000000000000E+00
             0.0000000000000000E+00    0.0000000000000000E+00    0.0000000000000000E+00
             0.0000000000000000E+00    0.0000000000000000E+00    0.0000000000000000E+00
             0.0000000000000000E+00    0.0000000000000000E+00    0.0000000000000000E+00
             0.0000000000000000E+00    0.0000000000000000E+00    0.0000000000000000E+00
             0.0000000000000000E+00    0.0000000000000000E+00    0.0000000000000000E+00
             0.0000000000000000E+00    0.0000000000000000E+00    0.0000000000000000E+00
             0.0000000000000000E+00    0.0000000000000000E+00    0.0000000000000000E+00
             0.0000000000000000E+00    0.0000000000000000E+00    0.0000000000000000E+00
             0.0000000000000000E+00    0.0000000000000000E+00    0.0000000000000000E+00
             0.0000000000000000E+00    0.0000000000000000E+00    0.0000000000000000E+00
             0.0000000000000000E+00    0.0000000000000000E+00    0.0000000000000000E+00
             0.0000000000000000E+00    0.0000000000000000E+00    0.0000000000000000E+00
             0.0000000000000000E+00    0.0000000000000000E+00    0.0000000000000000E+00
             0.0000000000000000E+00    0.0000000000000000E+00    0.0000000000000000E+00
             0.0000000000000000E+00    0.0000000000000000E+00    0.0000000000000000E+00
             0.0000000000000000E+00    0.0000000000000000E+00    0.0000000000000000E+00
             0.0000000000000000E+00    0.0000000000000000E+00    0.0000000000000000E+00
             0.0000000000000000E+00    0.0000000000000000E+00    0.0000000000000000E+00
             0.0000000000000000E+00    0.0000000000000000E+00    0.0000000000000000E+00
             0.0000000000000000E+00    0.0000000000000000E+00    0.0000000000000000E+00
             0.0000000000000000E+00    0.0000000000000000E+00    0.0000000000000000E+00
             0.0000000000000000E+00    0.0000000000000000E+00    0.0000000000000000E+00
             0.0000000000000000E+00    0.0000000000000000E+00    0.0000000000000000E+00
             0.0000000000000000E+00    0.0000000000000000E+00    0.0000000000000000E+00
             0.0000000000000000E+00    0.0000000000000000E+00    0.0000000000000000E+00
             0.0000000000000000E+00    0.0000000000000000E+00    0.0000000000000000E+00
             0.0000000000000000E+00    0.0000000000000000E+00    0.0000000000000000E+00
             0.0000000000000000E+00    0.0000000000000000E+00    0.0000000000000000E+00
             0.0000000000000000E+00    0.0000000000000000E+00    0.0000000000000000E+00
             0.0000000000000000E+00    0.0000000000000000E+00    0.0000000000000000E+00
             0.0000000000000000E+00    0.0000000000000000E+00    0.0000000000000000E+00
             0.0000000000000000E+00    0.0000000000000000E+00    0.0000000000000000E+00
             0.0000000000000000E+00    0.0000000000000000E+00    0.0000000000000000E+00
             0.0000000000000000E+00    0.0000000000000000E+00    0.0000000000000000E+00
             0.0000000000000000E+00    0.0000000000000000E+00    0.0000000000000000E+00
             0.0000000000000000E+00    0.0000000000000000E+00    0.0000000000000000E+00
             0.0000000000000000E+00    0.0000000000000000E+00    0.0000000000000000E+00
             0.0000000000000000E+00    0.0000000000000000E+00    0.0000000000000000E+00
             0.0000000000000000E+00    0.0000000000000000E+00    0.0000000000000000E+00
             0.0000000000000000E+00    0.0000000000000000E+00    0.0000000000000000E+00
             0.0000000000000000E+00    0.0000000000000000E+00    0.0000000000000000E+00
             0.0000000000000000E+00    0.0000000000000000E+00    0.0000000000000000E+00
             0.0000000000000000E+00    0.0000000000000000E+00    0.0000000000000000E+00
             0.0000000000000000E+00    0.0000000000000000E+00    0.0000000000000000E+00
             0.0000000000000000E+00    0.0000000000000000E+00    0.0000000000000000E+00
             0.0000000000000000E+00    0.0000000000000000E+00    0.0000000000000000E+00
             0.0000000000000000E+00    0.0000000000000000E+00    0.0000000000000000E+00
             0.0000000000000000E+00    0.0000000000000000E+00    0.0000000000000000E+00