         0      -5729.782607898      -5729.737335719      -5729.772184682          6.810754900          6.736367264
         1      -5729.782607899      -5729.863533936      -5729.772184682          6.845289508          6.785361784
         2      -5729.782607898      -5729.884437986      -5729.772184682          6.863204937          6.803272483
         3      -5729.782607899      -5729.893070423      -5729.772184682          6.863539105          6.805600484
         4      -5729.782607899      -5729.900203241      -5729.772184682          6.886362493          6.828378153
         5      -5729.782607898      -5729.905840192      -5729.772184683          6.887190613          6.831075030
         6      -5729.782607899      -5729.910825387      -5729.772184682          6.906828438          6.850971838
         7      -5729.782607899      -5729.913764966      -5729.772184682          6.908359302          6.849636717
         8      -5729.782607899      -5729.944894533      -5729.772184682          7.241160415          7.056838544
         9      -5729.782607899      -5729.948989176      -5729.772184682          7.267430134          7.077062465
        10      -5729.782607899      -5729.951308817      -5729.772184682          7.271923690          7.078951606
        11      -5729.782607898      -5729.953086263      -5729.772184682          7.268848138          7.071745087
        12      -5729.782607898      -5729.954446118      -5729.772184682          7.273277468          7.074888491
        13      -5729.782607898      -5729.968192493      -5729.772184682          7.366844330          7.118501588
        14      -5729.782607899      -5729.975581370      -5729.772184682          7.427288760          7.197930624
        15      -5729.782607899      -5729.978259030      -5729.772184682          7.426398307          7.199862783
        16      -5729.782607898      -5729.979499264      -5729.772184682          7.440566734          7.222355962
        17      -5729.782607899      -5729.981579359      -5729.772184682          7.456900736          7.247335027
        18      -5729.782607899      -5729.983362591      -5729.772184682          7.500835426          7.324495297
        19      -5729.782607899      -5729.985928164      -5729.772184683          7.501361094          7.328657086
        20      -5729.782607898      -5729.986836878      -5729.772184682          7.507522176          7.350866025
        21      -5729.782607898      -5729.988285071      -5729.772184682          7.519141332          7.368822205
        22      -5729.782607899      -5729.988814725      -5729.772184682          7.527617197          7.384920753
        23      -5729.782607898      -5729.989548656      -5729.772184682          7.535383608          7.398350158
        24      -5729.782607899      -5729.989963654      -5729.772184682          7.537099421          7.402845482
        25      -5729.782607899      -5729.999157738      -5729.772184682          8.142395509          8.337923600
        26      -5729.782607899      -5730.011686353      -5729.772184683          8.137987963          8.336967184
        27      -5729.782607899      -5730.014385589      -5729.772184682          8.147537416          8.348972383
        28      -5729.782607899      -5730.015224513      -5729.772184682          8.169789665          8.386568099
        29      -5729.782607898      -5730.016392230      -5729.772184682          8.181339424          8.401325192
        30      -5729.782607899      -5730.016917298      -5729.772184682          8.186582516          8.408650171
        31      -5729.782607898      -5730.017423772      -5729.772184683          8.196452046          8.419931588
        32      -5729.782607898      -5730.017934543      -5729.772184682          8.202066888          8.427075089
        33      -5729.782607899      -5730.018317313      -5729.772184682          8.206782814          8.432071935
        34      -5729.782607898      -5730.030288700      -5729.772184682          9.030907809          9.303258546
        35      -5729.782607898      -5730.056403717      -5729.772184683          9.039274016          9.337226672
        36      -5729.782607898      -5730.059220235      -5729.772184683          9.028365296          9.317654239
        37      -5729.782607899      -5730.059761681      -5729.772184682          9.036151045          9.311549443
        38      -5729.782607899      -5730.060251672      -5729.772184682          9.043935120          9.306273847
        39      -5729.782607898      -5730.051140268      -5729.772184682          9.111834056          9.259985099
        40      -5729.782607899      -5730.054679399      -5729.772184682          9.128358001          9.264829256
        41      -5729.782607899      -5730.052364716      -5729.772184682          9.159217022          9.262292042
        42      -5729.782607899      -5730.052933218      -5729.772184682          9.167940725          9.260035216
        43      -5729.782607898      -5730.051420989      -5729.772184682          9.188340532          9.256487092
        44      -5729.782607898      -5730.051435301      -5729.772184682          9.195926640          9.254373573
        45      -5729.782607898      -5730.049235236      -5729.772184682          9.243904278          9.250277630
        46      -5729.782607899      -5730.048822433      -5729.772184682          9.254429551          9.249125822
        47      -5729.782607898      -5730.034712257      -5729.772184683          9.363750995          9.240692110
        48      -5729.782607899      -5730.043404345      -5729.772184682          9.379819120          9.248561262
        49      -5729.782607899      -5730.041382201      -5729.772184682          9.415249693          9.253243907
        50      -5729.782607899      -5730.042280547      -5729.772184683          9.424277571          9.256019835
        51      -5729.782607899      -5730.041627549      -5729.772184682          9.439906441          9.257895696
        52      -5729.782607899      -5730.042072995      -5729.772184682          9.442715424          9.259790114
        53      -5729.782607898      -5730.014278130      -5729.772184682         10.336035682          9.646915822
        54      -5729.782607899      -5730.021489011      -5729.772184682         10.371089953          9.546480977
        55      -5729.782607899      -5730.045016713      -5729.772184682         10.456755125          9.607732703
        56      -5729.782607898      -5730.046640665      -5729.772184682         10.479795158          9.602821884
        57      -5729.782607899      -5727.622094721      -5729.772184682         27.864218553         30.062025039
        58      -5729.782607898      -5714.086629647      -5729.772184682         28.720424744         30.855196394
        59      -5729.782607898      -5727.764749011      -5729.772184682         29.033261916         31.146288975
        60      -5729.782607899      -5728.308503308      -5729.772184682         28.964111657         31.080654141
        61      -5729.782607899      -5728.594041542      -5729.772184682         28.826096081         30.948530245
        62      -5729.782607898      -5728.698564508      -5729.772184683         28.773189513         30.897392585
        63      -5729.782607899      -5728.723719607      -5729.772184682         28.730245669         30.856901346
        64      -5729.782607899      -5728.764907001      -5729.772184682         28.661841445         30.790785792
        65      -5729.782607899      -5728.786979261      -5729.772184682         28.672649348         30.798639075
        66      -5729.782607899      -5728.817428339      -5729.772184682         28.628103407         30.753327477
        67      -5729.782607899      -5728.833039535      -5729.772184682         28.636583307         30.759387242
        68      -5729.782607899      -5728.846336521      -5729.772184682         28.623793124         30.744532650
        69      -5729.782607898      -5728.855898377      -5729.772184682         28.620272405         30.739847498
        70      -5729.782607899      -5728.865831368      -5729.772184682         28.619561817         30.736479150
        71      -5729.782607898      -5728.873149529      -5729.772184682         28.615110847         30.731358052
        72      -5729.782607898      -5728.920311886      -5729.772184682         28.611574416         30.705217782
        73      -5729.782607898      -5728.944565330      -5729.772184682         28.597782188         30.691155416
        74      -5729.782607899      -5728.972094115      -5729.772184682         28.611360511         30.701495542
        75      -5729.782607898      -5728.998379880      -5729.772184682         28.610435323         30.692506782
        76      -5729.782607898      -5729.014854547      -5729.772184682         28.626787221         30.705401612
        77      -5729.782607898      -5729.031269497      -5729.772184682         28.630716166         30.704022440
        78      -5729.782607898      -5729.056524389      -5729.772184682         28.646017530         30.715605045
        79      -5729.782607899      -5729.081783014      -5729.772184682         28.646353152         30.711055934
        80      -5729.782607899      -5729.108844320      -5729.772184682         28.660734385         30.721960871
        81      -5729.782607898      -5729.142680594      -5729.772184682         28.668259963         30.724459840
        82      -5729.782607899      -5729.182108216      -5729.772184683         28.651339113         30.705558997
        83      -5729.782607899      -5729.251452622      -5729.772184682         28.668139219         30.716698636
        84      -5729.782607899      -5729.293495412      -5729.772184682         28.645480973         30.695090699
        85      -5729.782607899      -5729.299338827      -5729.772184682         28.647707781         30.697052100
        86      -5729.782607899      -5729.302814128      -5729.772184682         28.650404840         30.697493590
        87      -5729.782607898      -5729.308889454      -5729.772184682         28.655951515         30.701270862
        88      -5729.782607899      -5729.313539216      -5729.772184683         28.662074560         30.704789529
        89      -5729.782607898      -5729.316909577      -5729.772184682         28.666764216         30.708228165
        90      -5729.782607899      -5729.327011497      -5729.772184682         28.708253588         30.736985523
        91      -5729.782607899      -5729.336797227      -5729.772184682         28.716465191         30.743932066
        92      -5729.782607899      -5729.342757454      -5729.772184682         28.743535957         30.764990224
        93      -5729.782607898      -5729.348334138      -5729.772184682         28.752915866         30.772976510
        94      -5729.782607899      -5729.351099939      -5729.772184682         28.761646405         30.780041803
        95      -5729.782607899      -5729.362128940      -5729.772184682         28.823278925         30.829703291
        96      -5729.782607899      -5729.369977966      -5729.772184682         28.835817345         30.840599152
        97      -5729.782607898      -5729.374519133      -5729.772184682         28.871747741         30.870619694
        98      -5729.782607899      -5729.376773543      -5729.772184682         28.884167525         30.881488567
        99      -5729.782607899      -5729.378931913      -5729.772184682         28.886151590         30.883241344
       100      -5729.782607899      -5729.380655741      -5729.772184682         28.911365479         30.905390612
       101      -5729.782607899      -5729.382307520      -5729.772184682         28.912610646         30.906552689
       102      -5729.782607899      -5729.383813635      -5729.772184682         28.935044577         30.926540712
       103      -5729.782607899      -5729.385309488      -5729.772184682         28.937413459         30.928766464
       104      -5729.782607899      -5729.386564118      -5729.772184682         28.958598007         30.947879515
       105      -5729.782607898      -5729.387831334      -5729.772184683         28.961257187         30.950422207
       106      -5729.782607899      -5729.389033134      -5729.772184682         28.983040648         30.970301800
       107      -5729.782607898      -5729.390249820      -5729.772184682         28.986020815         30.973190378
       108      -5729.782607899      -5729.391844200      -5729.772184682         29.003649306         30.989543842
       109      -5729.782607898      -5729.392930031      -5729.772184682         29.026619769         31.010873270
       110      -5729.782607899      -5729.394049118      -5729.772184682         29.029964735         31.014191610
       111      -5729.782607899      -5729.395089006      -5729.772184682         29.054021896         31.036749872
       112      -5729.782607899      -5729.396178469      -5729.772184682         29.057461254         31.040196262
       113      -5729.782607899      -5729.397569236      -5729.772184682         29.095664668         31.076408702
       114      -5729.782607899      -5729.399089337      -5729.772184682         29.098722115         31.079600568
       115      -5729.782607899      -5729.400390640      -5729.772184682         29.140341526         31.119535315
       116      -5729.782607899      -5729.401898402      -5729.772184682         29.143555602         31.122951955
       117      -5729.782607898      -5729.402738449      -5729.772184682         29.158349394         31.137408591
       118      -5729.782607898      -5729.403816615      -5729.772184682         29.201438893         31.179388879
       119      -5729.782607898      -5729.405223530      -5729.772184683         29.205105708         31.183321998
       120      -5729.782607898      -5729.406166869      -5729.772184682         29.251602460         31.229120931
       121      -5729.782607899      -5729.407511235      -5729.772184682         29.256366662         31.234273433
       122      -5729.782607899      -5729.407956560      -5729.772184682         29.268220400         31.245951773
       123      -5729.782607898      -5729.408401673      -5729.772184682         29.277912264         31.255885409
       124      -5729.782607899      -5729.408828926      -5729.772184683         29.289873427         31.267729931
       125      -5729.782607898      -5729.409255971      -5729.772184682         29.299846666         31.277983438
       126      -5729.782607899      -5729.409617087      -5729.772184682         29.306181390         31.284286161
       127      -5729.782607898      -5729.421593560      -5729.772184682         30.280525963         32.266564988
       128      -5729.782607898      -5729.425384905      -5729.772184682         30.299495702         32.286984389
       129      -5729.782607898      -5729.426042593      -5729.772184682         30.320320136         32.309890440
       130      -5729.782607899      -5729.423077763      -5729.772184682         30.368726817         32.362501422
       131      -5729.782607898      -5729.424721655      -5729.772184682         30.384528648         32.379945113
       132      -5729.782607898      -5729.414223619      -5729.772184682         29.668223809         31.588509309
       133      -5729.782607899      -5729.421537442      -5729.772184682         29.625602322         31.546573450
       134      -5729.782607899      -5729.425028552      -5729.772184682         29.577528708         31.497703802
       135      -5729.782607899      -5729.427968695      -5729.772184682         29.554367146         31.474949854
       136      -5729.782607899      -5729.430627767      -5729.772184682         29.509191070         31.429120663
       137      -5729.782607898      -5729.431328099      -5729.772184682         29.480589919         31.399415329
       138      -5729.782607898      -5729.432336926      -5729.772184682         29.469292401         31.388181857
       139      -5729.782607898      -5729.432783376      -5729.772184682         29.431135433         31.348163700
       140      -5729.782607898      -5729.433844592      -5729.772184682         29.422171424         31.339211117
       141      -5729.782607899      -5729.434011550      -5729.772184682         29.389451800         31.304270369
       142      -5729.782607899      -5729.434893862      -5729.772184682         29.381734923         31.296458125
       143      -5729.782607898      -5729.434983089      -5729.772184682         29.377267374         31.291541590
       144      -5729.782607899      -5729.434970686      -5729.772184682         29.345438679         31.257174559
       145      -5729.782607899      -5729.435712120      -5729.772184682         29.336751941         31.248295056
       146      -5729.782607898      -5729.435848295      -5729.772184682         29.328560879         31.239191428
       147      -5729.782607898      -5729.436018339      -5729.772184682         29.318702537         31.228827767
       148      -5729.782607899      -5729.436135095      -5729.772184682         29.310336150         31.219535784
       149      -5729.782607899      -5729.436291609      -5729.772184682         29.300593108         31.209257726
       150      -5729.782607898      -5729.436453398      -5729.772184682         29.296663940         31.204895568
       151      -5729.782607899      -5729.434942694      -5729.772184682         28.493091837         30.324851864
       152      -5729.782607899      -5729.437606136      -5729.772184682         28.495240170         30.326563835
       153      -5729.782607899      -5729.441219030      -5729.772184682         28.528849794         30.354361226
       154      -5729.782607899      -5729.442900153      -5729.772184682         28.524320401         30.349902685
       155      -5729.782607899      -5729.443410101      -5729.772184683         28.522666929         30.347471567
       156      -5729.782607898      -5729.448128453      -5729.772184682         28.473961666         30.280161940
       157      -5729.782607899      -5729.451375969      -5729.772184683         28.463253084         30.269940912
       158      -5729.782607899      -5729.452432357      -5729.772184683         28.440684110         30.247334665
       159      -5729.782607898      -5729.453295191      -5729.772184683         28.433502299         30.240060605
       160      -5729.782607898      -5729.453709982      -5729.772184682         28.429864969         30.236098475
       161      -5729.782607898      -5729.454107414      -5729.772184682         28.426163248         30.232129042
       162      -5729.782607898      -5729.454786325      -5729.772184683         28.419595866         30.225183278
       163      -5729.782607899      -5729.461445321      -5729.772184682         28.335651629         30.127442771
       164      -5729.782607899      -5729.460081813      -5729.772184682         28.338141285         30.129176483
       165      -5729.782607899      -5729.468051336      -5729.772184683         28.336756321         30.127867764
       166      -5729.782607898      -5729.470246788      -5729.772184682         28.332457650         30.121711434
       167      -5729.782607899      -5729.471946261      -5729.772184682         28.336112699         30.124723668
       168      -5729.782607898      -5729.472751201      -5729.772184683         28.337894209         30.125559158
       169      -5729.782607899      -5729.473452450      -5729.772184682         28.341334469         30.128307387
       170      -5729.782607899      -5729.473888399      -5729.772184682         28.340192143         30.126951800
       171      -5729.782607899      -5729.474309852      -5729.772184682         28.342056685         30.128314490
       172      -5729.782607899      -5729.474738248      -5729.772184682         28.340758344         30.126832701
       173      -5729.782607899      -5729.475157000      -5729.772184682         28.342720489         30.128280951
       174      -5729.782607899      -5729.475429945      -5729.772184682         28.342213552         30.127702316
       175      -5729.782607898      -5729.499883390      -5729.772184682         28.445532424         30.194130781
       176      -5729.782607899      -5729.505918260      -5729.772184683         28.446258370         30.194711681
       177      -5729.782607898      -5729.508306143      -5729.772184682         28.447378825         30.195582793
       178      -5729.782607898      -5729.510280084      -5729.772184682         28.449890913         30.196786431
       179      -5729.782607898      -5729.511268927      -5729.772184682         28.450470160         30.197153494
       180      -5729.782607898      -5729.511944851      -5729.772184682         28.450421682         30.197031124
       181      -5729.782607899      -5729.512554944      -5729.772184682         28.452132034         30.198090497
       182      -5729.782607899      -5729.513099372      -5729.772184682         28.452079073         30.197977177
       183      -5729.782607899      -5729.513638019      -5729.772184682         28.454821164         30.199964742
       184      -5729.782607899      -5729.514134032      -5729.772184682         28.454702875         30.199788880
       185      -5729.782607899      -5729.514463770      -5729.772184682         28.456353042         30.201014852
       186      -5729.782607898      -5729.514779665      -5729.772184682         28.456521978         30.201071973
