 # Version information for this restart file 
 # current date 2024-01-12 14:08:27.659
 # current working dir /gpfs/home/cahart/transport/melamine/au_from-h2/ci-neb/ts2/dft_leads-sz_tip-dzvp_surf-dzvp_kpoints-2-4-20_replicas-3
 # Program compiled at                              Thu 21 Sep 19:20:17 BST 2023
 # Program compiled on                                           hx1-c12-login-1
 # Program compiled for                                                    local
 # Source code revision number                                       git:5518aa6
 &GLOBAL
   EXTENDED_FFT_LENGTHS  T
   PRINT_LEVEL  MEDIUM
   PROJECT_NAME 2_dft_wfn-r-0
   OUTPUT_FILE_NAME 2_dft_wfn-r-0.out
   RUN_TYPE  BAND
 &END GLOBAL
 &MOTION
   &BAND
     NPROC_REP  64
     BAND_TYPE  CI-NEB
     NUMBER_OF_REPLICA  3
     K_SPRING     5.0000000000000003E-02
     &CI_NEB
       NSTEPS_IT  5
     &END CI_NEB
     &OPTIMIZE_BAND
       OPT_TYPE  DIIS
       &DIIS
         MAX_STEPS  1000
       &END DIIS
     &END OPTIMIZE_BAND
     &REPLICA
       &COORD
             0.0000000000000000E+00    0.0000000000000000E+00    0.0000000000000000E+00
             0.0000000000000000E+00    2.9549999999999943E+00    0.0000000000000000E+00
             0.0000000000000000E+00    5.9109999999999880E+00    0.0000000000000000E+00
             2.9559999999999951E+00    0.0000000000000000E+00    0.0000000000000000E+00
             2.9559999999999951E+00    2.9549999999999943E+00    0.0000000000000000E+00
             2.9559999999999951E+00    5.9109999999999880E+00    0.0000000000000000E+00
             5.9119999999999902E+00    0.0000000000000000E+00    0.0000000000000000E+00
             5.9119999999999902E+00    2.9549999999999943E+00    0.0000000000000000E+00
             5.9119999999999902E+00    5.9109999999999880E+00    0.0000000000000000E+00
             8.6699999999999857E+00    0.0000000000000000E+00    0.0000000000000000E+00
             8.6699999999999857E+00    2.9549999999999943E+00    0.0000000000000000E+00
             8.6699999999999857E+00    5.9109999999999880E+00    0.0000000000000000E+00
             1.1625999999999982E+01    0.0000000000000000E+00    0.0000000000000000E+00
             1.1625999999999982E+01    2.9549999999999943E+00    0.0000000000000000E+00
             1.1625999999999982E+01    5.9109999999999880E+00    0.0000000000000000E+00
             1.4779999999999975E+00    1.4779999999999975E+00    2.0899999999999967E+00
             1.4779999999999975E+00    4.4329999999999909E+00    2.0899999999999967E+00
             1.4779999999999975E+00    7.3889999999999860E+00    2.0899999999999967E+00
             4.4339999999999948E+00    1.4779999999999975E+00    2.0899999999999967E+00
             4.4339999999999948E+00    4.4329999999999909E+00    2.0899999999999967E+00
             4.4339999999999948E+00    7.3889999999999860E+00    2.0899999999999967E+00
             7.1919999999999886E+00    1.4779999999999975E+00    2.0899999999999967E+00
             7.1919999999999886E+00    4.4329999999999909E+00    2.0899999999999967E+00
             7.1919999999999886E+00    7.3889999999999860E+00    2.0899999999999967E+00
             1.0147999999999978E+01    1.4779999999999975E+00    2.0899999999999967E+00
             1.0147999999999978E+01    4.4329999999999909E+00    2.0899999999999967E+00
             1.0147999999999978E+01    7.3889999999999860E+00    2.0899999999999967E+00
             1.3103999999999971E+01    1.4779999999999975E+00    2.0899999999999967E+00
             1.3103999999999971E+01    4.4329999999999909E+00    2.0899999999999967E+00
             1.3103999999999971E+01    7.3889999999999860E+00    2.0899999999999967E+00
             0.0000000000000000E+00    0.0000000000000000E+00    4.1799999999999935E+00
             0.0000000000000000E+00    2.9549999999999943E+00    4.1799999999999935E+00
             0.0000000000000000E+00    5.9109999999999880E+00    4.1799999999999935E+00
             2.9559999999999951E+00    0.0000000000000000E+00    4.1799999999999935E+00
             2.9559999999999951E+00    2.9549999999999943E+00    4.1799999999999935E+00
             2.9559999999999951E+00    5.9109999999999880E+00    4.1799999999999935E+00
             5.9119999999999902E+00    0.0000000000000000E+00    4.1799999999999935E+00
             5.9119999999999902E+00    2.9549999999999943E+00    4.1799999999999935E+00
             5.9119999999999902E+00    5.9109999999999880E+00    4.1799999999999935E+00
             8.6699999999999857E+00    0.0000000000000000E+00    4.1799999999999935E+00
             8.6699999999999857E+00    2.9549999999999943E+00    4.1799999999999935E+00
             8.6699999999999857E+00    5.9109999999999880E+00    4.1799999999999935E+00
             1.1625999999999982E+01    0.0000000000000000E+00    4.1799999999999935E+00
             1.1625999999999982E+01    2.9549999999999943E+00    4.1799999999999935E+00
             1.1625999999999982E+01    5.9109999999999880E+00    4.1799999999999935E+00
             1.4779999999999975E+00    1.4779999999999975E+00    6.2699999999999854E+00
             1.4779999999999975E+00    4.4329999999999909E+00    6.2699999999999854E+00
             1.4779999999999975E+00    7.3889999999999860E+00    6.2699999999999854E+00
             4.4339999999999948E+00    1.4779999999999975E+00    6.2699999999999854E+00
             4.4339999999999948E+00    4.4329999999999909E+00    6.2699999999999854E+00
             4.4339999999999948E+00    7.3889999999999860E+00    6.2699999999999854E+00
             7.1919999999999886E+00    1.4779999999999975E+00    6.2699999999999854E+00
             7.1919999999999886E+00    4.4329999999999909E+00    6.2699999999999854E+00
             7.1919999999999886E+00    7.3889999999999860E+00    6.2699999999999854E+00
             1.0147999999999978E+01    1.4779999999999975E+00    6.2699999999999854E+00
             1.0147999999999978E+01    4.4329999999999909E+00    6.2699999999999854E+00
             1.0147999999999978E+01    7.3889999999999860E+00    6.2699999999999854E+00
             1.3103999999999971E+01    1.4779999999999975E+00    6.2699999999999854E+00
             1.3103999999999971E+01    4.4329999999999909E+00    6.2699999999999854E+00
             1.3103999999999971E+01    7.3889999999999860E+00    6.2699999999999854E+00
             0.0000000000000000E+00    0.0000000000000000E+00    8.3599999999999870E+00
             0.0000000000000000E+00    2.9549999999999943E+00    8.3599999999999870E+00
             0.0000000000000000E+00    5.9109999999999880E+00    8.3599999999999870E+00
             2.9559999999999951E+00    0.0000000000000000E+00    8.3599999999999870E+00
             2.9559999999999951E+00    2.9549999999999943E+00    8.3599999999999870E+00
             2.9559999999999951E+00    5.9109999999999880E+00    8.3599999999999870E+00
             5.9119999999999902E+00    0.0000000000000000E+00    8.3599999999999870E+00
             5.9119999999999902E+00    2.9549999999999943E+00    8.3599999999999870E+00
             5.9119999999999902E+00    5.9109999999999880E+00    8.3599999999999870E+00
             8.6699999999999857E+00    0.0000000000000000E+00    8.3599999999999870E+00
             8.6699999999999857E+00    2.9549999999999943E+00    8.3599999999999870E+00
             8.6699999999999857E+00    5.9109999999999880E+00    8.3599999999999870E+00
             1.1625999999999982E+01    0.0000000000000000E+00    8.3599999999999870E+00
             1.1625999999999982E+01    2.9549999999999943E+00    8.3599999999999870E+00
             1.1625999999999982E+01    5.9109999999999880E+00    8.3599999999999870E+00
             1.4779999999999975E+00    1.4779999999999975E+00    1.0449999999999980E+01
             1.4779999999999975E+00    4.4329999999999909E+00    1.0449999999999980E+01
             1.4779999999999975E+00    7.3889999999999860E+00    1.0449999999999980E+01
             4.4339999999999948E+00    1.4779999999999975E+00    1.0449999999999980E+01
             4.4339999999999948E+00    4.4329999999999909E+00    1.0449999999999980E+01
             4.4339999999999948E+00    7.3889999999999860E+00    1.0449999999999980E+01
             7.1919999999999886E+00    1.4779999999999975E+00    1.0449999999999980E+01
             7.1919999999999886E+00    4.4329999999999909E+00    1.0449999999999980E+01
             7.1919999999999886E+00    7.3889999999999860E+00    1.0449999999999980E+01
             1.0147999999999978E+01    1.4779999999999975E+00    1.0449999999999980E+01
             1.0147999999999978E+01    4.4329999999999909E+00    1.0449999999999980E+01
             1.0147999999999978E+01    7.3889999999999860E+00    1.0449999999999980E+01
             1.3103999999999971E+01    1.4779999999999975E+00    1.0449999999999980E+01
             1.3103999999999971E+01    4.4329999999999909E+00    1.0449999999999980E+01
             1.3103999999999971E+01    7.3889999999999860E+00    1.0449999999999980E+01
             4.8553999999999888E+00    5.9118999999999913E+00    1.2031799999999977E+01
             9.5279999999999845E+00    5.9136999999999880E+00    1.2033999999999981E+01
             7.1919999999999886E+00    5.9339999999999922E+00    1.2039999999999974E+01
             4.0673339927999939E+00    5.9059993219999889E+00    1.2687741368899976E+01
             1.0318905404799985E+01    5.9087793825999873E+00    1.2685747073199973E+01
             5.9989554221999875E+00    5.9152564165999904E+00    1.2792642411199976E+01
             8.3738707292999841E+00    5.9179777706999914E+00    1.2731457252199981E+01
             8.3227525761999832E+00    5.9051536094999886E+00    1.4080497642099974E+01
             5.9344285048999890E+00    5.8981604864999895E+00    1.4101749969599972E+01
             7.1039653576999884E+00    5.8899410688999909E+00    1.4828703219099962E+01
             7.2416021046999886E+00    5.8657702091999875E+00    1.6106466757299973E+01
             6.3118250322999900E+00    5.8547577070999877E+00    1.6539601306199970E+01
             9.1743570612999790E+00    5.8876302391999911E+00    1.4641017735299974E+01
             7.3119999999999870E+00    5.9339999999999922E+00    2.1042999999999960E+01
             5.8129999999999908E+00    7.4339999999999851E+00    2.2991999999999962E+01
             8.8129999999999793E+00    4.4339999999999948E+00    2.2991999999999962E+01
             5.8129999999999908E+00    4.4329999999999909E+00    2.2991999999999962E+01
             8.8129999999999793E+00    7.4339999999999851E+00    2.2991999999999962E+01
             1.4779999999999975E+00    1.4779999999999975E+00    2.5081999999999947E+01
             1.4779999999999975E+00    4.4329999999999909E+00    2.5081999999999947E+01
             1.4779999999999975E+00    7.3889999999999860E+00    2.5081999999999947E+01
             4.4339999999999948E+00    1.4779999999999975E+00    2.5081999999999947E+01
             4.4339999999999948E+00    4.4329999999999909E+00    2.5081999999999947E+01
             4.4339999999999948E+00    7.3889999999999860E+00    2.5081999999999947E+01
             7.1919999999999886E+00    1.4779999999999975E+00    2.5081999999999947E+01
             7.1919999999999886E+00    4.4329999999999909E+00    2.5081999999999947E+01
             7.1919999999999886E+00    7.3889999999999860E+00    2.5081999999999947E+01
             1.0147999999999978E+01    1.4779999999999975E+00    2.5081999999999947E+01
             1.0147999999999978E+01    4.4329999999999909E+00    2.5081999999999947E+01
             1.0147999999999978E+01    7.3889999999999860E+00    2.5081999999999947E+01
             1.3103999999999971E+01    1.4779999999999975E+00    2.5081999999999947E+01
             1.3103999999999971E+01    4.4329999999999909E+00    2.5081999999999947E+01
             1.3103999999999971E+01    7.3889999999999860E+00    2.5081999999999947E+01
             0.0000000000000000E+00    0.0000000000000000E+00    2.7171999999999958E+01
             0.0000000000000000E+00    2.9549999999999943E+00    2.7171999999999958E+01
             0.0000000000000000E+00    5.9109999999999880E+00    2.7171999999999958E+01
             2.9559999999999951E+00    0.0000000000000000E+00    2.7171999999999958E+01
             2.9559999999999951E+00    2.9549999999999943E+00    2.7171999999999958E+01
             2.9559999999999951E+00    5.9109999999999880E+00    2.7171999999999958E+01
             5.9119999999999902E+00    0.0000000000000000E+00    2.7171999999999958E+01
             5.9119999999999902E+00    2.9549999999999943E+00    2.7171999999999958E+01
             5.9119999999999902E+00    5.9109999999999880E+00    2.7171999999999958E+01
             8.6699999999999857E+00    0.0000000000000000E+00    2.7171999999999958E+01
             8.6699999999999857E+00    2.9549999999999943E+00    2.7171999999999958E+01
             8.6699999999999857E+00    5.9109999999999880E+00    2.7171999999999958E+01
             1.1625999999999982E+01    0.0000000000000000E+00    2.7171999999999958E+01
             1.1625999999999982E+01    2.9549999999999943E+00    2.7171999999999958E+01
             1.1625999999999982E+01    5.9109999999999880E+00    2.7171999999999958E+01
             1.4779999999999975E+00    1.4779999999999975E+00    2.9261999999999954E+01
             1.4779999999999975E+00    4.4329999999999909E+00    2.9261999999999954E+01
             1.4779999999999975E+00    7.3889999999999860E+00    2.9261999999999954E+01
             4.4339999999999948E+00    1.4779999999999975E+00    2.9261999999999954E+01
             4.4339999999999948E+00    4.4329999999999909E+00    2.9261999999999954E+01
             4.4339999999999948E+00    7.3889999999999860E+00    2.9261999999999954E+01
             7.1919999999999886E+00    1.4779999999999975E+00    2.9261999999999954E+01
             7.1919999999999886E+00    4.4329999999999909E+00    2.9261999999999954E+01
             7.1919999999999886E+00    7.3889999999999860E+00    2.9261999999999954E+01
             1.0147999999999978E+01    1.4779999999999975E+00    2.9261999999999954E+01
             1.0147999999999978E+01    4.4329999999999909E+00    2.9261999999999954E+01
             1.0147999999999978E+01    7.3889999999999860E+00    2.9261999999999954E+01
             1.3103999999999971E+01    1.4779999999999975E+00    2.9261999999999954E+01
             1.3103999999999971E+01    4.4329999999999909E+00    2.9261999999999954E+01
             1.3103999999999971E+01    7.3889999999999860E+00    2.9261999999999954E+01
             0.0000000000000000E+00    0.0000000000000000E+00    3.1351999999999947E+01
             0.0000000000000000E+00    2.9549999999999943E+00    3.1351999999999947E+01
             0.0000000000000000E+00    5.9109999999999880E+00    3.1351999999999947E+01
             2.9559999999999951E+00    0.0000000000000000E+00    3.1351999999999947E+01
             2.9559999999999951E+00    2.9549999999999943E+00    3.1351999999999947E+01
             2.9559999999999951E+00    5.9109999999999880E+00    3.1351999999999947E+01
             5.9119999999999902E+00    0.0000000000000000E+00    3.1351999999999947E+01
             5.9119999999999902E+00    2.9549999999999943E+00    3.1351999999999947E+01
             5.9119999999999902E+00    5.9109999999999880E+00    3.1351999999999947E+01
             8.6699999999999857E+00    0.0000000000000000E+00    3.1351999999999947E+01
             8.6699999999999857E+00    2.9549999999999943E+00    3.1351999999999947E+01
             8.6699999999999857E+00    5.9109999999999880E+00    3.1351999999999947E+01
             1.1625999999999982E+01    0.0000000000000000E+00    3.1351999999999947E+01
             1.1625999999999982E+01    2.9549999999999943E+00    3.1351999999999947E+01
             1.1625999999999982E+01    5.9109999999999880E+00    3.1351999999999947E+01
             1.4779999999999975E+00    1.4779999999999975E+00    3.3441999999999943E+01
             1.4779999999999975E+00    4.4329999999999909E+00    3.3441999999999943E+01
             1.4779999999999975E+00    7.3889999999999860E+00    3.3441999999999943E+01
             4.4339999999999948E+00    1.4779999999999975E+00    3.3441999999999943E+01
             4.4339999999999948E+00    4.4329999999999909E+00    3.3441999999999943E+01
             4.4339999999999948E+00    7.3889999999999860E+00    3.3441999999999943E+01
             7.1919999999999886E+00    1.4779999999999975E+00    3.3441999999999943E+01
             7.1919999999999886E+00    4.4329999999999909E+00    3.3441999999999943E+01
             7.1919999999999886E+00    7.3889999999999860E+00    3.3441999999999943E+01
             1.0147999999999978E+01    1.4779999999999975E+00    3.3441999999999943E+01
             1.0147999999999978E+01    4.4329999999999909E+00    3.3441999999999943E+01
             1.0147999999999978E+01    7.3889999999999860E+00    3.3441999999999943E+01
             1.3103999999999971E+01    1.4779999999999975E+00    3.3441999999999943E+01
             1.3103999999999971E+01    4.4329999999999909E+00    3.3441999999999943E+01
             1.3103999999999971E+01    7.3889999999999860E+00    3.3441999999999943E+01
       &END COORD
       &VELOCITY
             0.0000000000000000E+00    0.0000000000000000E+00    0.0000000000000000E+00
             0.0000000000000000E+00    0.0000000000000000E+00    0.0000000000000000E+00
             0.0000000000000000E+00    0.0000000000000000E+00    0.0000000000000000E+00
             0.0000000000000000E+00    0.0000000000000000E+00    0.0000000000000000E+00
             0.0000000000000000E+00    0.0000000000000000E+00    0.0000000000000000E+00
             0.0000000000000000E+00    0.0000000000000000E+00    0.0000000000000000E+00
             0.0000000000000000E+00    0.0000000000000000E+00    0.0000000000000000E+00
             0.0000000000000000E+00    0.0000000000000000E+00    0.0000000000000000E+00
             0.0000000000000000E+00    0.0000000000000000E+00    0.0000000000000000E+00
             0.0000000000000000E+00    0.0000000000000000E+00    0.0000000000000000E+00
             0.0000000000000000E+00    0.0000000000000000E+00    0.0000000000000000E+00
             0.0000000000000000E+00    0.0000000000000000E+00    0.0000000000000000E+00
             0.0000000000000000E+00    0.0000000000000000E+00    0.0000000000000000E+00
             0.0000000000000000E+00    0.0000000000000000E+00    0.0000000000000000E+00
             0.0000000000000000E+00    0.0000000000000000E+00    0.0000000000000000E+00
             0.0000000000000000E+00    0.0000000000000000E+00    0.0000000000000000E+00
             0.0000000000000000E+00    0.0000000000000000E+00    0.0000000000000000E+00
             0.0000000000000000E+00    0.0000000000000000E+00    0.0000000000000000E+00
             0.0000000000000000E+00    0.0000000000000000E+00    0.0000000000000000E+00
             0.0000000000000000E+00    0.0000000000000000E+00    0.0000000000000000E+00
             0.0000000000000000E+00    0.0000000000000000E+00    0.0000000000000000E+00
             0.0000000000000000E+00    0.0000000000000000E+00    0.0000000000000000E+00
             0.0000000000000000E+00    0.0000000000000000E+00    0.0000000000000000E+00
             0.0000000000000000E+00    0.0000000000000000E+00    0.0000000000000000E+00
             0.0000000000000000E+00    0.0000000000000000E+00    0.0000000000000000E+00
             0.0000000000000000E+00    0.0000000000000000E+00    0.0000000000000000E+00
             0.0000000000000000E+00    0.0000000000000000E+00    0.0000000000000000E+00
             0.0000000000000000E+00    0.0000000000000000E+00    0.0000000000000000E+00
             0.0000000000000000E+00    0.0000000000000000E+00    0.0000000000000000E+00
             0.0000000000000000E+00    0.0000000000000000E+00    0.0000000000000000E+00
             0.0000000000000000E+00    0.0000000000000000E+00    0.0000000000000000E+00
             0.0000000000000000E+00    0.0000000000000000E+00    0.0000000000000000E+00
             0.0000000000000000E+00    0.0000000000000000E+00    0.0000000000000000E+00
             0.0000000000000000E+00    0.0000000000000000E+00    0.0000000000000000E+00
             0.0000000000000000E+00    0.0000000000000000E+00    0.0000000000000000E+00
             0.0000000000000000E+00    0.0000000000000000E+00    0.0000000000000000E+00
             0.0000000000000000E+00    0.0000000000000000E+00    0.0000000000000000E+00
             0.0000000000000000E+00    0.0000000000000000E+00    0.0000000000000000E+00
             0.0000000000000000E+00    0.0000000000000000E+00    0.0000000000000000E+00
             0.0000000000000000E+00    0.0000000000000000E+00    0.0000000000000000E+00
             0.0000000000000000E+00    0.0000000000000000E+00    0.0000000000000000E+00
             0.0000000000000000E+00    0.0000000000000000E+00    0.0000000000000000E+00
             0.0000000000000000E+00    0.0000000000000000E+00    0.0000000000000000E+00
             0.0000000000000000E+00    0.0000000000000000E+00    0.0000000000000000E+00
             0.0000000000000000E+00    0.0000000000000000E+00    0.0000000000000000E+00
             0.0000000000000000E+00    0.0000000000000000E+00    0.0000000000000000E+00
             0.0000000000000000E+00    0.0000000000000000E+00    0.0000000000000000E+00
             0.0000000000000000E+00    0.0000000000000000E+00    0.0000000000000000E+00
             0.0000000000000000E+00    0.0000000000000000E+00    0.0000000000000000E+00
             0.0000000000000000E+00    0.0000000000000000E+00    0.0000000000000000E+00
             0.0000000000000000E+00    0.0000000000000000E+00    0.0000000000000000E+00
             0.0000000000000000E+00    0.0000000000000000E+00    0.0000000000000000E+00
             0.0000000000000000E+00    0.0000000000000000E+00    0.0000000000000000E+00
             0.0000000000000000E+00    0.0000000000000000E+00    0.0000000000000000E+00
             0.0000000000000000E+00    0.0000000000000000E+00    0.0000000000000000E+00
             0.0000000000000000E+00    0.0000000000000000E+00    0.0000000000000000E+00
             0.0000000000000000E+00    0.0000000000000000E+00    0.0000000000000000E+00
             0.0000000000000000E+00    0.0000000000000000E+00    0.0000000000000000E+00
             0.0000000000000000E+00    0.0000000000000000E+00    0.0000000000000000E+00
             0.0000000000000000E+00    0.0000000000000000E+00    0.0000000000000000E+00
             0.0000000000000000E+00    0.0000000000000000E+00    0.0000000000000000E+00
             0.0000000000000000E+00    0.0000000000000000E+00    0.0000000000000000E+00
             0.0000000000000000E+00    0.0000000000000000E+00    0.0000000000000000E+00
             0.0000000000000000E+00    0.0000000000000000E+00    0.0000000000000000E+00
             0.0000000000000000E+00    0.0000000000000000E+00    0.0000000000000000E+00
             0.0000000000000000E+00    0.0000000000000000E+00    0.0000000000000000E+00
             0.0000000000000000E+00    0.0000000000000000E+00    0.0000000000000000E+00
             0.0000000000000000E+00    0.0000000000000000E+00    0.0000000000000000E+00
             0.0000000000000000E+00    0.0000000000000000E+00    0.0000000000000000E+00
             0.0000000000000000E+00    0.0000000000000000E+00    0.0000000000000000E+00
             0.0000000000000000E+00    0.0000000000000000E+00    0.0000000000000000E+00
             0.0000000000000000E+00    0.0000000000000000E+00    0.0000000000000000E+00
             0.0000000000000000E+00    0.0000000000000000E+00    0.0000000000000000E+00
             0.0000000000000000E+00    0.0000000000000000E+00    0.0000000000000000E+00
             0.0000000000000000E+00    0.0000000000000000E+00    0.0000000000000000E+00
             0.0000000000000000E+00    0.0000000000000000E+00    0.0000000000000000E+00
             0.0000000000000000E+00    0.0000000000000000E+00    0.0000000000000000E+00
             0.0000000000000000E+00    0.0000000000000000E+00    0.0000000000000000E+00
             0.0000000000000000E+00    0.0000000000000000E+00    0.0000000000000000E+00
             0.0000000000000000E+00    0.0000000000000000E+00    0.0000000000000000E+00
             0.0000000000000000E+00    0.0000000000000000E+00    0.0000000000000000E+00
             0.0000000000000000E+00    0.0000000000000000E+00    0.0000000000000000E+00
             0.0000000000000000E+00    0.0000000000000000E+00    0.0000000000000000E+00
             0.0000000000000000E+00    0.0000000000000000E+00    0.0000000000000000E+00
             0.0000000000000000E+00    0.0000000000000000E+00    0.0000000000000000E+00
             0.0000000000000000E+00    0.0000000000000000E+00    0.0000000000000000E+00
             0.0000000000000000E+00    0.0000000000000000E+00    0.0000000000000000E+00
             0.0000000000000000E+00    0.0000000000000000E+00    0.0000000000000000E+00
             0.0000000000000000E+00    0.0000000000000000E+00    0.0000000000000000E+00
             0.0000000000000000E+00    0.0000000000000000E+00    0.0000000000000000E+00
             0.0000000000000000E+00    0.0000000000000000E+00    0.0000000000000000E+00
             0.0000000000000000E+00    0.0000000000000000E+00    0.0000000000000000E+00
             0.0000000000000000E+00    0.0000000000000000E+00    0.0000000000000000E+00
             0.0000000000000000E+00    0.0000000000000000E+00    0.0000000000000000E+00
             0.0000000000000000E+00    0.0000000000000000E+00    0.0000000000000000E+00
             0.0000000000000000E+00    0.0000000000000000E+00    0.0000000000000000E+00
             0.0000000000000000E+00    0.0000000000000000E+00    0.0000000000000000E+00
             0.0000000000000000E+00    0.0000000000000000E+00    0.0000000000000000E+00
             0.0000000000000000E+00    0.0000000000000000E+00    0.0000000000000000E+00
             0.0000000000000000E+00    0.0000000000000000E+00    0.0000000000000000E+00
             0.0000000000000000E+00    0.0000000000000000E+00    0.0000000000000000E+00
             0.0000000000000000E+00    0.0000000000000000E+00    0.0000000000000000E+00
             0.0000000000000000E+00    0.0000000000000000E+00    0.0000000000000000E+00
             0.0000000000000000E+00    0.0000000000000000E+00    0.0000000000000000E+00
             0.0000000000000000E+00    0.0000000000000000E+00    0.0000000000000000E+00
             0.0000000000000000E+00    0.0000000000000000E+00    0.0000000000000000E+00
             0.0000000000000000E+00    0.0000000000000000E+00    0.0000000000000000E+00
             0.0000000000000000E+00    0.0000000000000000E+00    0.0000000000000000E+00
             0.0000000000000000E+00    0.0000000000000000E+00    0.0000000000000000E+00
             0.0000000000000000E+00    0.0000000000000000E+00    0.0000000000000000E+00
             0.0000000000000000E+00    0.0000000000000000E+00    0.0000000000000000E+00
             0.0000000000000000E+00    0.0000000000000000E+00    0.0000000000000000E+00
             0.0000000000000000E+00    0.0000000000000000E+00    0.0000000000000000E+00
             0.0000000000000000E+00    0.0000000000000000E+00    0.0000000000000000E+00
             0.0000000000000000E+00    0.0000000000000000E+00    0.0000000000000000E+00
             0.0000000000000000E+00    0.0000000000000000E+00    0.0000000000000000E+00
             0.0000000000000000E+00    0.0000000000000000E+00    0.0000000000000000E+00
             0.0000000000000000E+00    0.0000000000000000E+00    0.0000000000000000E+00
             0.0000000000000000E+00    0.0000000000000000E+00    0.0000000000000000E+00
             0.0000000000000000E+00    0.0000000000000000E+00    0.0000000000000000E+00
             0.0000000000000000E+00    0.0000000000000000E+00    0.0000000000000000E+00
             0.0000000000000000E+00    0.0000000000000000E+00    0.0000000000000000E+00
             0.0000000000000000E+00    0.0000000000000000E+00    0.0000000000000000E+00
             0.0000000000000000E+00    0.0000000000000000E+00    0.0000000000000000E+00
             0.0000000000000000E+00    0.0000000000000000E+00    0.0000000000000000E+00
             0.0000000000000000E+00    0.0000000000000000E+00    0.0000000000000000E+00
             0.0000000000000000E+00    0.0000000000000000E+00    0.0000000000000000E+00
             0.0000000000000000E+00    0.0000000000000000E+00    0.0000000000000000E+00
             0.0000000000000000E+00    0.0000000000000000E+00    0.0000000000000000E+00
             0.0000000000000000E+00    0.0000000000000000E+00    0.0000000000000000E+00
             0.0000000000000000E+00    0.0000000000000000E+00    0.0000000000000000E+00
             0.0000000000000000E+00    0.0000000000000000E+00    0.0000000000000000E+00
             0.0000000000000000E+00    0.0000000000000000E+00    0.0000000000000000E+00
             0.0000000000000000E+00    0.0000000000000000E+00    0.0000000000000000E+00
             0.0000000000000000E+00    0.0000000000000000E+00    0.0000000000000000E+00
             0.0000000000000000E+00    0.0000000000000000E+00    0.0000000000000000E+00
             0.0000000000000000E+00    0.0000000000000000E+00    0.0000000000000000E+00
             0.0000000000000000E+00    0.0000000000000000E+00    0.0000000000000000E+00
             0.0000000000000000E+00    0.0000000000000000E+00    0.0000000000000000E+00
             0.0000000000000000E+00    0.0000000000000000E+00    0.0000000000000000E+00
             0.0000000000000000E+00    0.0000000000000000E+00    0.0000000000000000E+00
             0.0000000000000000E+00    0.0000000000000000E+00    0.0000000000000000E+00
             0.0000000000000000E+00    0.0000000000000000E+00    0.0000000000000000E+00
             0.0000000000000000E+00    0.0000000000000000E+00    0.0000000000000000E+00
             0.0000000000000000E+00    0.0000000000000000E+00    0.0000000000000000E+00