 # Version information for this restart file 
 # current date 2024-01-12 20:25:05.670
 # current working dir /gpfs/home/cahart/transport/melamine/au_from-h2/ci-neb/ts2/dft_leads-sz_tip-dzvp_surf-dzvp_kpoints-2-4-20_replicas-3
 # Program compiled at                              Thu 21 Sep 19:20:17 BST 2023
 # Program compiled on                                           hx1-c12-login-1
 # Program compiled for                                                    local
 # Source code revision number                                       git:5518aa6
 &GLOBAL
   EXTENDED_FFT_LENGTHS  T
   PRINT_LEVEL  MEDIUM
   PROJECT_NAME 2_dft_wfn-r-0
   OUTPUT_FILE_NAME 2_dft_wfn-r-0.out
   RUN_TYPE  BAND
 &END GLOBAL
 &MOTION
   &BAND
     NPROC_REP  64
     BAND_TYPE  CI-NEB
     NUMBER_OF_REPLICA  3
     K_SPRING     5.0000000000000003E-02
     &CI_NEB
       NSTEPS_IT  5
     &END CI_NEB
     &OPTIMIZE_BAND
       OPT_TYPE  DIIS
       &DIIS
         MAX_STEPS  1000
       &END DIIS
     &END OPTIMIZE_BAND
     &REPLICA
       &COORD
             0.0000000000000000E+00    0.0000000000000000E+00    0.0000000000000000E+00
             0.0000000000000000E+00    2.9550000000000081E+00    0.0000000000000000E+00
             0.0000000000000000E+00    5.9110000000000129E+00    0.0000000000000000E+00
             2.9560000000000088E+00    0.0000000000000000E+00    0.0000000000000000E+00
             2.9560000000000088E+00    2.9550000000000081E+00    0.0000000000000000E+00
             2.9560000000000088E+00    5.9110000000000129E+00    0.0000000000000000E+00
             5.9120000000000177E+00    0.0000000000000000E+00    0.0000000000000000E+00
             5.9120000000000177E+00    2.9550000000000081E+00    0.0000000000000000E+00
             5.9120000000000177E+00    5.9110000000000129E+00    0.0000000000000000E+00
             8.6700000000000266E+00    0.0000000000000000E+00    0.0000000000000000E+00
             8.6700000000000266E+00    2.9550000000000081E+00    0.0000000000000000E+00
             8.6700000000000266E+00    5.9110000000000129E+00    0.0000000000000000E+00
             1.1626000000000039E+01    0.0000000000000000E+00    0.0000000000000000E+00
             1.1626000000000039E+01    2.9550000000000081E+00    0.0000000000000000E+00
             1.1626000000000039E+01    5.9110000000000129E+00    0.0000000000000000E+00
             1.4780000000000044E+00    1.4780000000000044E+00    2.0900000000000065E+00
             1.4780000000000044E+00    4.4330000000000158E+00    2.0900000000000065E+00
             1.4780000000000044E+00    7.3890000000000233E+00    2.0900000000000065E+00
             4.4340000000000144E+00    1.4780000000000044E+00    2.0900000000000065E+00
             4.4340000000000144E+00    4.4330000000000158E+00    2.0900000000000065E+00
             4.4340000000000144E+00    7.3890000000000233E+00    2.0900000000000065E+00
             7.1920000000000188E+00    1.4780000000000044E+00    2.0900000000000065E+00
             7.1920000000000188E+00    4.4330000000000158E+00    2.0900000000000065E+00
             7.1920000000000188E+00    7.3890000000000233E+00    2.0900000000000065E+00
             1.0148000000000028E+01    1.4780000000000044E+00    2.0900000000000065E+00
             1.0148000000000028E+01    4.4330000000000158E+00    2.0900000000000065E+00
             1.0148000000000028E+01    7.3890000000000233E+00    2.0900000000000065E+00
             1.3104000000000037E+01    1.4780000000000044E+00    2.0900000000000065E+00
             1.3104000000000037E+01    4.4330000000000158E+00    2.0900000000000065E+00
             1.3104000000000037E+01    7.3890000000000233E+00    2.0900000000000065E+00
             0.0000000000000000E+00    0.0000000000000000E+00    4.1800000000000130E+00
             0.0000000000000000E+00    2.9550000000000081E+00    4.1800000000000130E+00
             0.0000000000000000E+00    5.9110000000000129E+00    4.1800000000000130E+00
             2.9560000000000088E+00    0.0000000000000000E+00    4.1800000000000130E+00
             2.9560000000000088E+00    2.9550000000000081E+00    4.1800000000000130E+00
             2.9560000000000088E+00    5.9110000000000129E+00    4.1800000000000130E+00
             5.9120000000000177E+00    0.0000000000000000E+00    4.1800000000000130E+00
             5.9120000000000177E+00    2.9550000000000081E+00    4.1800000000000130E+00
             5.9120000000000177E+00    5.9110000000000129E+00    4.1800000000000130E+00
             8.6700000000000266E+00    0.0000000000000000E+00    4.1800000000000130E+00
             8.6700000000000266E+00    2.9550000000000081E+00    4.1800000000000130E+00
             8.6700000000000266E+00    5.9110000000000129E+00    4.1800000000000130E+00
             1.1626000000000039E+01    0.0000000000000000E+00    4.1800000000000130E+00
             1.1626000000000039E+01    2.9550000000000081E+00    4.1800000000000130E+00
             1.1626000000000039E+01    5.9110000000000129E+00    4.1800000000000130E+00
             1.4780000000000044E+00    1.4780000000000044E+00    6.2700000000000156E+00
             1.4780000000000044E+00    4.4330000000000158E+00    6.2700000000000156E+00
             1.4780000000000044E+00    7.3890000000000233E+00    6.2700000000000156E+00
             4.4340000000000144E+00    1.4780000000000044E+00    6.2700000000000156E+00
             4.4340000000000144E+00    4.4330000000000158E+00    6.2700000000000156E+00
             4.4340000000000144E+00    7.3890000000000233E+00    6.2700000000000156E+00
             7.1920000000000188E+00    1.4780000000000044E+00    6.2700000000000156E+00
             7.1920000000000188E+00    4.4330000000000158E+00    6.2700000000000156E+00
             7.1920000000000188E+00    7.3890000000000233E+00    6.2700000000000156E+00
             1.0148000000000028E+01    1.4780000000000044E+00    6.2700000000000156E+00
             1.0148000000000028E+01    4.4330000000000158E+00    6.2700000000000156E+00
             1.0148000000000028E+01    7.3890000000000233E+00    6.2700000000000156E+00
             1.3104000000000037E+01    1.4780000000000044E+00    6.2700000000000156E+00
             1.3104000000000037E+01    4.4330000000000158E+00    6.2700000000000156E+00
             1.3104000000000037E+01    7.3890000000000233E+00    6.2700000000000156E+00
             0.0000000000000000E+00    0.0000000000000000E+00    8.3600000000000261E+00
             0.0000000000000000E+00    2.9550000000000081E+00    8.3600000000000261E+00
             0.0000000000000000E+00    5.9110000000000129E+00    8.3600000000000261E+00
             2.9560000000000088E+00    0.0000000000000000E+00    8.3600000000000261E+00
             2.9560000000000088E+00    2.9550000000000081E+00    8.3600000000000261E+00
             2.9560000000000088E+00    5.9110000000000129E+00    8.3600000000000261E+00
             5.9120000000000177E+00    0.0000000000000000E+00    8.3600000000000261E+00
             5.9120000000000177E+00    2.9550000000000081E+00    8.3600000000000261E+00
             5.9120000000000177E+00    5.9110000000000129E+00    8.3600000000000261E+00
             8.6700000000000266E+00    0.0000000000000000E+00    8.3600000000000261E+00
             8.6700000000000266E+00    2.9550000000000081E+00    8.3600000000000261E+00
             8.6700000000000266E+00    5.9110000000000129E+00    8.3600000000000261E+00
             1.1626000000000039E+01    0.0000000000000000E+00    8.3600000000000261E+00
             1.1626000000000039E+01    2.9550000000000081E+00    8.3600000000000261E+00
             1.1626000000000039E+01    5.9110000000000129E+00    8.3600000000000261E+00
             1.4780000000000044E+00    1.4780000000000044E+00    1.0450000000000029E+01
             1.4780000000000044E+00    4.4330000000000158E+00    1.0450000000000029E+01
             1.4780000000000044E+00    7.3890000000000233E+00    1.0450000000000029E+01
             4.4340000000000144E+00    1.4780000000000044E+00    1.0450000000000029E+01
             4.4340000000000144E+00    4.4330000000000158E+00    1.0450000000000029E+01
             4.4340000000000144E+00    7.3890000000000233E+00    1.0450000000000029E+01
             7.1920000000000188E+00    1.4780000000000044E+00    1.0450000000000029E+01
             7.1920000000000188E+00    4.4330000000000158E+00    1.0450000000000029E+01
             7.1920000000000188E+00    7.3890000000000233E+00    1.0450000000000029E+01
             1.0148000000000028E+01    1.4780000000000044E+00    1.0450000000000029E+01
             1.0148000000000028E+01    4.4330000000000158E+00    1.0450000000000029E+01
             1.0148000000000028E+01    7.3890000000000233E+00    1.0450000000000029E+01
             1.3104000000000037E+01    1.4780000000000044E+00    1.0450000000000029E+01
             1.3104000000000037E+01    4.4330000000000158E+00    1.0450000000000029E+01
             1.3104000000000037E+01    7.3890000000000233E+00    1.0450000000000029E+01
             4.8554000000000093E+00    5.9119000000000188E+00    1.2031800000000032E+01
             9.5280000000000289E+00    5.9137000000000164E+00    1.2034000000000034E+01
             7.1920000000000188E+00    5.9340000000000197E+00    1.2040000000000038E+01
             4.0673339928000134E+00    5.9059993220000138E+00    1.2687741368900040E+01
             1.0318905404800034E+01    5.9087793826000112E+00    1.2685747073200037E+01
             5.9989554222000185E+00    5.9152564166000170E+00    1.2792642411200033E+01
             8.3738707293000250E+00    5.9179777707000172E+00    1.2731457252200043E+01
             8.3227525762000241E+00    5.9051536095000143E+00    1.4080497642100040E+01
             5.9344285049000156E+00    5.8981604865000179E+00    1.4101749969600037E+01
             7.1039653577000230E+00    5.8899410689000185E+00    1.4828703219100033E+01
             7.2416021047000241E+00    5.8657702092000132E+00    1.6106466757300048E+01
             6.3118250323000149E+00    5.8547577071000125E+00    1.6539601306200051E+01
             9.1743570613000252E+00    5.8876302392000168E+00    1.4641017735300041E+01
             7.3120000000000216E+00    5.9340000000000197E+00    2.1043000000000056E+01
             5.8130000000000193E+00    7.4340000000000179E+00    2.2992000000000072E+01
             8.8130000000000184E+00    4.4340000000000144E+00    2.2992000000000072E+01
             5.8130000000000193E+00    4.4330000000000158E+00    2.2992000000000072E+01
             8.8130000000000184E+00    7.4340000000000179E+00    2.2992000000000072E+01
             1.4780000000000044E+00    1.4780000000000044E+00    2.5082000000000079E+01
             1.4780000000000044E+00    4.4330000000000158E+00    2.5082000000000079E+01
             1.4780000000000044E+00    7.3890000000000233E+00    2.5082000000000079E+01
             4.4340000000000144E+00    1.4780000000000044E+00    2.5082000000000079E+01
             4.4340000000000144E+00    4.4330000000000158E+00    2.5082000000000079E+01
             4.4340000000000144E+00    7.3890000000000233E+00    2.5082000000000079E+01
             7.1920000000000188E+00    1.4780000000000044E+00    2.5082000000000079E+01
             7.1920000000000188E+00    4.4330000000000158E+00    2.5082000000000079E+01
             7.1920000000000188E+00    7.3890000000000233E+00    2.5082000000000079E+01
             1.0148000000000028E+01    1.4780000000000044E+00    2.5082000000000079E+01
             1.0148000000000028E+01    4.4330000000000158E+00    2.5082000000000079E+01
             1.0148000000000028E+01    7.3890000000000233E+00    2.5082000000000079E+01
             1.3104000000000037E+01    1.4780000000000044E+00    2.5082000000000079E+01
             1.3104000000000037E+01    4.4330000000000158E+00    2.5082000000000079E+01
             1.3104000000000037E+01    7.3890000000000233E+00    2.5082000000000079E+01
             0.0000000000000000E+00    0.0000000000000000E+00    2.7172000000000072E+01
             0.0000000000000000E+00    2.9550000000000081E+00    2.7172000000000072E+01
             0.0000000000000000E+00    5.9110000000000129E+00    2.7172000000000072E+01
             2.9560000000000088E+00    0.0000000000000000E+00    2.7172000000000072E+01
             2.9560000000000088E+00    2.9550000000000081E+00    2.7172000000000072E+01
             2.9560000000000088E+00    5.9110000000000129E+00    2.7172000000000072E+01
             5.9120000000000177E+00    0.0000000000000000E+00    2.7172000000000072E+01
             5.9120000000000177E+00    2.9550000000000081E+00    2.7172000000000072E+01
             5.9120000000000177E+00    5.9110000000000129E+00    2.7172000000000072E+01
             8.6700000000000266E+00    0.0000000000000000E+00    2.7172000000000072E+01
             8.6700000000000266E+00    2.9550000000000081E+00    2.7172000000000072E+01
             8.6700000000000266E+00    5.9110000000000129E+00    2.7172000000000072E+01
             1.1626000000000039E+01    0.0000000000000000E+00    2.7172000000000072E+01
             1.1626000000000039E+01    2.9550000000000081E+00    2.7172000000000072E+01
             1.1626000000000039E+01    5.9110000000000129E+00    2.7172000000000072E+01
             1.4780000000000044E+00    1.4780000000000044E+00    2.9262000000000089E+01
             1.4780000000000044E+00    4.4330000000000158E+00    2.9262000000000089E+01
             1.4780000000000044E+00    7.3890000000000233E+00    2.9262000000000089E+01
             4.4340000000000144E+00    1.4780000000000044E+00    2.9262000000000089E+01
             4.4340000000000144E+00    4.4330000000000158E+00    2.9262000000000089E+01
             4.4340000000000144E+00    7.3890000000000233E+00    2.9262000000000089E+01
             7.1920000000000188E+00    1.4780000000000044E+00    2.9262000000000089E+01
             7.1920000000000188E+00    4.4330000000000158E+00    2.9262000000000089E+01
             7.1920000000000188E+00    7.3890000000000233E+00    2.9262000000000089E+01
             1.0148000000000028E+01    1.4780000000000044E+00    2.9262000000000089E+01
             1.0148000000000028E+01    4.4330000000000158E+00    2.9262000000000089E+01
             1.0148000000000028E+01    7.3890000000000233E+00    2.9262000000000089E+01
             1.3104000000000037E+01    1.4780000000000044E+00    2.9262000000000089E+01
             1.3104000000000037E+01    4.4330000000000158E+00    2.9262000000000089E+01
             1.3104000000000037E+01    7.3890000000000233E+00    2.9262000000000089E+01
             0.0000000000000000E+00    0.0000000000000000E+00    3.1352000000000078E+01
             0.0000000000000000E+00    2.9550000000000081E+00    3.1352000000000078E+01
             0.0000000000000000E+00    5.9110000000000129E+00    3.1352000000000078E+01
             2.9560000000000088E+00    0.0000000000000000E+00    3.1352000000000078E+01
             2.9560000000000088E+00    2.9550000000000081E+00    3.1352000000000078E+01
             2.9560000000000088E+00    5.9110000000000129E+00    3.1352000000000078E+01
             5.9120000000000177E+00    0.0000000000000000E+00    3.1352000000000078E+01
             5.9120000000000177E+00    2.9550000000000081E+00    3.1352000000000078E+01
             5.9120000000000177E+00    5.9110000000000129E+00    3.1352000000000078E+01
             8.6700000000000266E+00    0.0000000000000000E+00    3.1352000000000078E+01
             8.6700000000000266E+00    2.9550000000000081E+00    3.1352000000000078E+01
             8.6700000000000266E+00    5.9110000000000129E+00    3.1352000000000078E+01
             1.1626000000000039E+01    0.0000000000000000E+00    3.1352000000000078E+01
             1.1626000000000039E+01    2.9550000000000081E+00    3.1352000000000078E+01
             1.1626000000000039E+01    5.9110000000000129E+00    3.1352000000000078E+01
             1.4780000000000044E+00    1.4780000000000044E+00    3.3442000000000107E+01
             1.4780000000000044E+00    4.4330000000000158E+00    3.3442000000000107E+01
             1.4780000000000044E+00    7.3890000000000233E+00    3.3442000000000107E+01
             4.4340000000000144E+00    1.4780000000000044E+00    3.3442000000000107E+01
             4.4340000000000144E+00    4.4330000000000158E+00    3.3442000000000107E+01
             4.4340000000000144E+00    7.3890000000000233E+00    3.3442000000000107E+01
             7.1920000000000188E+00    1.4780000000000044E+00    3.3442000000000107E+01
             7.1920000000000188E+00    4.4330000000000158E+00    3.3442000000000107E+01
             7.1920000000000188E+00    7.3890000000000233E+00    3.3442000000000107E+01
             1.0148000000000028E+01    1.4780000000000044E+00    3.3442000000000107E+01
             1.0148000000000028E+01    4.4330000000000158E+00    3.3442000000000107E+01
             1.0148000000000028E+01    7.3890000000000233E+00    3.3442000000000107E+01
             1.3104000000000037E+01    1.4780000000000044E+00    3.3442000000000107E+01
             1.3104000000000037E+01    4.4330000000000158E+00    3.3442000000000107E+01
             1.3104000000000037E+01    7.3890000000000233E+00    3.3442000000000107E+01
       &END COORD
       &VELOCITY
             0.0000000000000000E+00    0.0000000000000000E+00    0.0000000000000000E+00
             0.0000000000000000E+00    0.0000000000000000E+00    0.0000000000000000E+00
             0.0000000000000000E+00    0.0000000000000000E+00    0.0000000000000000E+00
             0.0000000000000000E+00    0.0000000000000000E+00    0.0000000000000000E+00
             0.0000000000000000E+00    0.0000000000000000E+00    0.0000000000000000E+00
             0.0000000000000000E+00    0.0000000000000000E+00    0.0000000000000000E+00
             0.0000000000000000E+00    0.0000000000000000E+00    0.0000000000000000E+00
             0.0000000000000000E+00    0.0000000000000000E+00    0.0000000000000000E+00
             0.0000000000000000E+00    0.0000000000000000E+00    0.0000000000000000E+00
             0.0000000000000000E+00    0.0000000000000000E+00    0.0000000000000000E+00
             0.0000000000000000E+00    0.0000000000000000E+00    0.0000000000000000E+00
             0.0000000000000000E+00    0.0000000000000000E+00    0.0000000000000000E+00
             0.0000000000000000E+00    0.0000000000000000E+00    0.0000000000000000E+00
             0.0000000000000000E+00    0.0000000000000000E+00    0.0000000000000000E+00
             0.0000000000000000E+00    0.0000000000000000E+00    0.0000000000000000E+00
             0.0000000000000000E+00    0.0000000000000000E+00    0.0000000000000000E+00
             0.0000000000000000E+00    0.0000000000000000E+00    0.0000000000000000E+00
             0.0000000000000000E+00    0.0000000000000000E+00    0.0000000000000000E+00
             0.0000000000000000E+00    0.0000000000000000E+00    0.0000000000000000E+00
             0.0000000000000000E+00    0.0000000000000000E+00    0.0000000000000000E+00
             0.0000000000000000E+00    0.0000000000000000E+00    0.0000000000000000E+00
             0.0000000000000000E+00    0.0000000000000000E+00    0.0000000000000000E+00
             0.0000000000000000E+00    0.0000000000000000E+00    0.0000000000000000E+00
             0.0000000000000000E+00    0.0000000000000000E+00    0.0000000000000000E+00
             0.0000000000000000E+00    0.0000000000000000E+00    0.0000000000000000E+00
             0.0000000000000000E+00    0.0000000000000000E+00    0.0000000000000000E+00
             0.0000000000000000E+00    0.0000000000000000E+00    0.0000000000000000E+00
             0.0000000000000000E+00    0.0000000000000000E+00    0.0000000000000000E+00
             0.0000000000000000E+00    0.0000000000000000E+00    0.0000000000000000E+00
             0.0000000000000000E+00    0.0000000000000000E+00    0.0000000000000000E+00
             0.0000000000000000E+00    0.0000000000000000E+00    0.0000000000000000E+00
             0.0000000000000000E+00    0.0000000000000000E+00    0.0000000000000000E+00
             0.0000000000000000E+00    0.0000000000000000E+00    0.0000000000000000E+00
             0.0000000000000000E+00    0.0000000000000000E+00    0.0000000000000000E+00
             0.0000000000000000E+00    0.0000000000000000E+00    0.0000000000000000E+00
             0.0000000000000000E+00    0.0000000000000000E+00    0.0000000000000000E+00
             0.0000000000000000E+00    0.0000000000000000E+00    0.0000000000000000E+00
             0.0000000000000000E+00    0.0000000000000000E+00    0.0000000000000000E+00
             0.0000000000000000E+00    0.0000000000000000E+00    0.0000000000000000E+00
             0.0000000000000000E+00    0.0000000000000000E+00    0.0000000000000000E+00
             0.0000000000000000E+00    0.0000000000000000E+00    0.0000000000000000E+00
             0.0000000000000000E+00    0.0000000000000000E+00    0.0000000000000000E+00
             0.0000000000000000E+00    0.0000000000000000E+00    0.0000000000000000E+00
             0.0000000000000000E+00    0.0000000000000000E+00    0.0000000000000000E+00
             0.0000000000000000E+00    0.0000000000000000E+00    0.0000000000000000E+00
             0.0000000000000000E+00    0.0000000000000000E+00    0.0000000000000000E+00
             0.0000000000000000E+00    0.0000000000000000E+00    0.0000000000000000E+00
             0.0000000000000000E+00    0.0000000000000000E+00    0.0000000000000000E+00
             0.0000000000000000E+00    0.0000000000000000E+00    0.0000000000000000E+00
             0.0000000000000000E+00    0.0000000000000000E+00    0.0000000000000000E+00
             0.0000000000000000E+00    0.0000000000000000E+00    0.0000000000000000E+00
             0.0000000000000000E+00    0.0000000000000000E+00    0.0000000000000000E+00
             0.0000000000000000E+00    0.0000000000000000E+00    0.0000000000000000E+00
             0.0000000000000000E+00    0.0000000000000000E+00    0.0000000000000000E+00
             0.0000000000000000E+00    0.0000000000000000E+00    0.0000000000000000E+00
             0.0000000000000000E+00    0.0000000000000000E+00    0.0000000000000000E+00
             0.0000000000000000E+00    0.0000000000000000E+00    0.0000000000000000E+00
             0.0000000000000000E+00    0.0000000000000000E+00    0.0000000000000000E+00
             0.0000000000000000E+00    0.0000000000000000E+00    0.0000000000000000E+00
             0.0000000000000000E+00    0.0000000000000000E+00    0.0000000000000000E+00
             0.0000000000000000E+00    0.0000000000000000E+00    0.0000000000000000E+00
             0.0000000000000000E+00    0.0000000000000000E+00    0.0000000000000000E+00
             0.0000000000000000E+00    0.0000000000000000E+00    0.0000000000000000E+00
             0.0000000000000000E+00    0.0000000000000000E+00    0.0000000000000000E+00
             0.0000000000000000E+00    0.0000000000000000E+00    0.0000000000000000E+00
             0.0000000000000000E+00    0.0000000000000000E+00    0.0000000000000000E+00
             0.0000000000000000E+00    0.0000000000000000E+00    0.0000000000000000E+00
             0.0000000000000000E+00    0.0000000000000000E+00    0.0000000000000000E+00
             0.0000000000000000E+00    0.0000000000000000E+00    0.0000000000000000E+00
             0.0000000000000000E+00    0.0000000000000000E+00    0.0000000000000000E+00
             0.0000000000000000E+00    0.0000000000000000E+00    0.0000000000000000E+00
             0.0000000000000000E+00    0.0000000000000000E+00    0.0000000000000000E+00
             0.0000000000000000E+00    0.0000000000000000E+00    0.0000000000000000E+00
             0.0000000000000000E+00    0.0000000000000000E+00    0.0000000000000000E+00
             0.0000000000000000E+00    0.0000000000000000E+00    0.0000000000000000E+00
             0.0000000000000000E+00    0.0000000000000000E+00    0.0000000000000000E+00
             0.0000000000000000E+00    0.0000000000000000E+00    0.0000000000000000E+00
             0.0000000000000000E+00    0.0000000000000000E+00    0.0000000000000000E+00
             0.0000000000000000E+00    0.0000000000000000E+00    0.0000000000000000E+00
             0.0000000000000000E+00    0.0000000000000000E+00    0.0000000000000000E+00
             0.0000000000000000E+00    0.0000000000000000E+00    0.0000000000000000E+00
             0.0000000000000000E+00    0.0000000000000000E+00    0.0000000000000000E+00
             0.0000000000000000E+00    0.0000000000000000E+00    0.0000000000000000E+00
             0.0000000000000000E+00    0.0000000000000000E+00    0.0000000000000000E+00
             0.0000000000000000E+00    0.0000000000000000E+00    0.0000000000000000E+00
             0.0000000000000000E+00    0.0000000000000000E+00    0.0000000000000000E+00
             0.0000000000000000E+00    0.0000000000000000E+00    0.0000000000000000E+00
             0.0000000000000000E+00    0.0000000000000000E+00    0.0000000000000000E+00
             0.0000000000000000E+00    0.0000000000000000E+00    0.0000000000000000E+00
             0.0000000000000000E+00    0.0000000000000000E+00    0.0000000000000000E+00
             0.0000000000000000E+00    0.0000000000000000E+00    0.0000000000000000E+00
             0.0000000000000000E+00    0.0000000000000000E+00    0.0000000000000000E+00
             0.0000000000000000E+00    0.0000000000000000E+00    0.0000000000000000E+00
             0.0000000000000000E+00    0.0000000000000000E+00    0.0000000000000000E+00
             0.0000000000000000E+00    0.0000000000000000E+00    0.0000000000000000E+00
             0.0000000000000000E+00    0.0000000000000000E+00    0.0000000000000000E+00
             0.0000000000000000E+00    0.0000000000000000E+00    0.0000000000000000E+00
             0.0000000000000000E+00    0.0000000000000000E+00    0.0000000000000000E+00
             0.0000000000000000E+00    0.0000000000000000E+00    0.0000000000000000E+00
             0.0000000000000000E+00    0.0000000000000000E+00    0.0000000000000000E+00
             0.0000000000000000E+00    0.0000000000000000E+00    0.0000000000000000E+00
             0.0000000000000000E+00    0.0000000000000000E+00    0.0000000000000000E+00
             0.0000000000000000E+00    0.0000000000000000E+00    0.0000000000000000E+00
             0.0000000000000000E+00    0.0000000000000000E+00    0.0000000000000000E+00
             0.0000000000000000E+00    0.0000000000000000E+00    0.0000000000000000E+00
             0.0000000000000000E+00    0.0000000000000000E+00    0.0000000000000000E+00
             0.0000000000000000E+00    0.0000000000000000E+00    0.0000000000000000E+00
             0.0000000000000000E+00    0.0000000000000000E+00    0.0000000000000000E+00
             0.0000000000000000E+00    0.0000000000000000E+00    0.0000000000000000E+00
             0.0000000000000000E+00    0.0000000000000000E+00    0.0000000000000000E+00
             0.0000000000000000E+00    0.0000000000000000E+00    0.0000000000000000E+00
             0.0000000000000000E+00    0.0000000000000000E+00    0.0000000000000000E+00
             0.0000000000000000E+00    0.0000000000000000E+00    0.0000000000000000E+00
             0.0000000000000000E+00    0.0000000000000000E+00    0.0000000000000000E+00
             0.0000000000000000E+00    0.0000000000000000E+00    0.0000000000000000E+00
             0.0000000000000000E+00    0.0000000000000000E+00    0.0000000000000000E+00
             0.0000000000000000E+00    0.0000000000000000E+00    0.0000000000000000E+00
             0.0000000000000000E+00    0.0000000000000000E+00    0.0000000000000000E+00
             0.0000000000000000E+00    0.0000000000000000E+00    0.0000000000000000E+00
             0.0000000000000000E+00    0.0000000000000000E+00    0.0000000000000000E+00
             0.0000000000000000E+00    0.0000000000000000E+00    0.0000000000000000E+00
             0.0000000000000000E+00    0.0000000000000000E+00    0.0000000000000000E+00
             0.0000000000000000E+00    0.0000000000000000E+00    0.0000000000000000E+00
             0.0000000000000000E+00    0.0000000000000000E+00    0.0000000000000000E+00
             0.0000000000000000E+00    0.0000000000000000E+00    0.0000000000000000E+00
             0.0000000000000000E+00    0.0000000000000000E+00    0.0000000000000000E+00
             0.0000000000000000E+00    0.0000000000000000E+00    0.0000000000000000E+00
             0.0000000000000000E+00    0.0000000000000000E+00    0.0000000000000000E+00
             0.0000000000000000E+00    0.0000000000000000E+00    0.0000000000000000E+00
             0.0000000000000000E+00    0.0000000000000000E+00    0.0000000000000000E+00
             0.0000000000000000E+00    0.0000000000000000E+00    0.0000000000000000E+00
             0.0000000000000000E+00    0.0000000000000000E+00    0.0000000000000000E+00
             0.0000000000000000E+00    0.0000000000000000E+00    0.0000000000000000E+00
             0.0000000000000000E+00    0.0000000000000000E+00    0.0000000000000000E+00
             0.0000000000000000E+00    0.0000000000000000E+00    0.0000000000000000E+00
             0.0000000000000000E+00    0.0000000000000000E+00    0.0000000000000000E+00
             0.0000000000000000E+00    0.0000000000000000E+00    0.0000000000000000E+00
             0.0000000000000000E+00    0.0000000000000000E+00    0.0000000000000000E+00
             0.0000000000000000E+00    0.0000000000000000E+00    0.0000000000000000E+00
             0.0000000000000000E+00    0.0000000000000000E+00    0.0000000000000000E+00
             0.0000000000000000E+00    0.0000000000000000E+00    0.0000000000000000E+00
             0.0000000000000000E+00    0.0000000000000000E+00    0.0000000000000000E+00
             0.0000000000000000E+00    0.0000000000000000E+00    0.0000000000000000E+00
             0.0000000000000000E+00    0.0000000000000000E+00    0.0000000000000000E+00
             0.0000000000000000E+00    0.0000000000000000E+00    0.0000000000000000E+00