 # Version information for this restart file 
 # current date 2024-01-13 04:31:47.527
 # current working dir /gpfs/home/cahart/transport/melamine/au_from-h2/ci-neb/ts2/dft_leads-sz_tip-dzvp_surf-dzvp_kpoints-2-4-20_replicas-3
 # Program compiled at                              Thu 21 Sep 19:20:17 BST 2023
 # Program compiled on                                           hx1-c12-login-1
 # Program compiled for                                                    local
 # Source code revision number                                       git:5518aa6
 &GLOBAL
   EXTENDED_FFT_LENGTHS  T
   PRINT_LEVEL  MEDIUM
   PROJECT_NAME 2_dft_wfn-r-0
   OUTPUT_FILE_NAME 2_dft_wfn-r-0.out
   RUN_TYPE  BAND
 &END GLOBAL
 &MOTION
   &BAND
     NPROC_REP  64
     BAND_TYPE  CI-NEB
     NUMBER_OF_REPLICA  3
     K_SPRING     5.0000000000000003E-02
     &CI_NEB
       NSTEPS_IT  5
     &END CI_NEB
     &OPTIMIZE_BAND
       OPT_TYPE  DIIS
       &DIIS
         MAX_STEPS  1000
       &END DIIS
     &END OPTIMIZE_BAND
     &REPLICA
       &COORD
             0.0000000000000000E+00    0.0000000000000000E+00    0.0000000000000000E+00
             0.0000000000000000E+00    2.9550000000000174E+00    0.0000000000000000E+00
             0.0000000000000000E+00    5.9110000000000280E+00    0.0000000000000000E+00
             2.9560000000000159E+00    0.0000000000000000E+00    0.0000000000000000E+00
             2.9560000000000159E+00    2.9550000000000174E+00    0.0000000000000000E+00
             2.9560000000000159E+00    5.9110000000000280E+00    0.0000000000000000E+00
             5.9120000000000319E+00    0.0000000000000000E+00    0.0000000000000000E+00
             5.9120000000000319E+00    2.9550000000000174E+00    0.0000000000000000E+00
             5.9120000000000319E+00    5.9110000000000280E+00    0.0000000000000000E+00
             8.6700000000000514E+00    0.0000000000000000E+00    0.0000000000000000E+00
             8.6700000000000514E+00    2.9550000000000174E+00    0.0000000000000000E+00
             8.6700000000000514E+00    5.9110000000000280E+00    0.0000000000000000E+00
             1.1626000000000072E+01    0.0000000000000000E+00    0.0000000000000000E+00
             1.1626000000000072E+01    2.9550000000000174E+00    0.0000000000000000E+00
             1.1626000000000072E+01    5.9110000000000280E+00    0.0000000000000000E+00
             1.4780000000000080E+00    1.4780000000000080E+00    2.0900000000000114E+00
             1.4780000000000080E+00    4.4330000000000283E+00    2.0900000000000114E+00
             1.4780000000000080E+00    7.3890000000000420E+00    2.0900000000000114E+00
             4.4340000000000259E+00    1.4780000000000080E+00    2.0900000000000114E+00
             4.4340000000000259E+00    4.4330000000000283E+00    2.0900000000000114E+00
             4.4340000000000259E+00    7.3890000000000420E+00    2.0900000000000114E+00
             7.1920000000000384E+00    1.4780000000000080E+00    2.0900000000000114E+00
             7.1920000000000384E+00    4.4330000000000283E+00    2.0900000000000114E+00
             7.1920000000000384E+00    7.3890000000000420E+00    2.0900000000000114E+00
             1.0148000000000055E+01    1.4780000000000080E+00    2.0900000000000114E+00
             1.0148000000000055E+01    4.4330000000000283E+00    2.0900000000000114E+00
             1.0148000000000055E+01    7.3890000000000420E+00    2.0900000000000114E+00
             1.3104000000000068E+01    1.4780000000000080E+00    2.0900000000000114E+00
             1.3104000000000068E+01    4.4330000000000283E+00    2.0900000000000114E+00
             1.3104000000000068E+01    7.3890000000000420E+00    2.0900000000000114E+00
             0.0000000000000000E+00    0.0000000000000000E+00    4.1800000000000228E+00
             0.0000000000000000E+00    2.9550000000000174E+00    4.1800000000000228E+00
             0.0000000000000000E+00    5.9110000000000280E+00    4.1800000000000228E+00
             2.9560000000000159E+00    0.0000000000000000E+00    4.1800000000000228E+00
             2.9560000000000159E+00    2.9550000000000174E+00    4.1800000000000228E+00
             2.9560000000000159E+00    5.9110000000000280E+00    4.1800000000000228E+00
             5.9120000000000319E+00    0.0000000000000000E+00    4.1800000000000228E+00
             5.9120000000000319E+00    2.9550000000000174E+00    4.1800000000000228E+00
             5.9120000000000319E+00    5.9110000000000280E+00    4.1800000000000228E+00
             8.6700000000000514E+00    0.0000000000000000E+00    4.1800000000000228E+00
             8.6700000000000514E+00    2.9550000000000174E+00    4.1800000000000228E+00
             8.6700000000000514E+00    5.9110000000000280E+00    4.1800000000000228E+00
             1.1626000000000072E+01    0.0000000000000000E+00    4.1800000000000228E+00
             1.1626000000000072E+01    2.9550000000000174E+00    4.1800000000000228E+00
             1.1626000000000072E+01    5.9110000000000280E+00    4.1800000000000228E+00
             1.4780000000000080E+00    1.4780000000000080E+00    6.2700000000000315E+00
             1.4780000000000080E+00    4.4330000000000283E+00    6.2700000000000315E+00
             1.4780000000000080E+00    7.3890000000000420E+00    6.2700000000000315E+00
             4.4340000000000259E+00    1.4780000000000080E+00    6.2700000000000315E+00
             4.4340000000000259E+00    4.4330000000000283E+00    6.2700000000000315E+00
             4.4340000000000259E+00    7.3890000000000420E+00    6.2700000000000315E+00
             7.1920000000000384E+00    1.4780000000000080E+00    6.2700000000000315E+00
             7.1920000000000384E+00    4.4330000000000283E+00    6.2700000000000315E+00
             7.1920000000000384E+00    7.3890000000000420E+00    6.2700000000000315E+00
             1.0148000000000055E+01    1.4780000000000080E+00    6.2700000000000315E+00
             1.0148000000000055E+01    4.4330000000000283E+00    6.2700000000000315E+00
             1.0148000000000055E+01    7.3890000000000420E+00    6.2700000000000315E+00
             1.3104000000000068E+01    1.4780000000000080E+00    6.2700000000000315E+00
             1.3104000000000068E+01    4.4330000000000283E+00    6.2700000000000315E+00
             1.3104000000000068E+01    7.3890000000000420E+00    6.2700000000000315E+00
             0.0000000000000000E+00    0.0000000000000000E+00    8.3600000000000456E+00
             0.0000000000000000E+00    2.9550000000000174E+00    8.3600000000000456E+00
             0.0000000000000000E+00    5.9110000000000280E+00    8.3600000000000456E+00
             2.9560000000000159E+00    0.0000000000000000E+00    8.3600000000000456E+00
             2.9560000000000159E+00    2.9550000000000174E+00    8.3600000000000456E+00
             2.9560000000000159E+00    5.9110000000000280E+00    8.3600000000000456E+00
             5.9120000000000319E+00    0.0000000000000000E+00    8.3600000000000456E+00
             5.9120000000000319E+00    2.9550000000000174E+00    8.3600000000000456E+00
             5.9120000000000319E+00    5.9110000000000280E+00    8.3600000000000456E+00
             8.6700000000000514E+00    0.0000000000000000E+00    8.3600000000000456E+00
             8.6700000000000514E+00    2.9550000000000174E+00    8.3600000000000456E+00
             8.6700000000000514E+00    5.9110000000000280E+00    8.3600000000000456E+00
             1.1626000000000072E+01    0.0000000000000000E+00    8.3600000000000456E+00
             1.1626000000000072E+01    2.9550000000000174E+00    8.3600000000000456E+00
             1.1626000000000072E+01    5.9110000000000280E+00    8.3600000000000456E+00
             1.4780000000000080E+00    1.4780000000000080E+00    1.0450000000000058E+01
             1.4780000000000080E+00    4.4330000000000283E+00    1.0450000000000058E+01
             1.4780000000000080E+00    7.3890000000000420E+00    1.0450000000000058E+01
             4.4340000000000259E+00    1.4780000000000080E+00    1.0450000000000058E+01
             4.4340000000000259E+00    4.4330000000000283E+00    1.0450000000000058E+01
             4.4340000000000259E+00    7.3890000000000420E+00    1.0450000000000058E+01
             7.1920000000000384E+00    1.4780000000000080E+00    1.0450000000000058E+01
             7.1920000000000384E+00    4.4330000000000283E+00    1.0450000000000058E+01
             7.1920000000000384E+00    7.3890000000000420E+00    1.0450000000000058E+01
             1.0148000000000055E+01    1.4780000000000080E+00    1.0450000000000058E+01
             1.0148000000000055E+01    4.4330000000000283E+00    1.0450000000000058E+01
             1.0148000000000055E+01    7.3890000000000420E+00    1.0450000000000058E+01
             1.3104000000000068E+01    1.4780000000000080E+00    1.0450000000000058E+01
             1.3104000000000068E+01    4.4330000000000283E+00    1.0450000000000058E+01
             1.3104000000000068E+01    7.3890000000000420E+00    1.0450000000000058E+01
             4.8554000000000199E+00    5.9119000000000348E+00    1.2031800000000066E+01
             9.5280000000000555E+00    5.9137000000000315E+00    1.2034000000000066E+01
             7.1920000000000384E+00    5.9340000000000357E+00    1.2040000000000072E+01
             4.0673339928000232E+00    5.9059993220000297E+00    1.2687741368900070E+01
             1.0318905404800063E+01    5.9087793826000290E+00    1.2685747073200069E+01
             5.9989554222000336E+00    5.9152564166000356E+00    1.2792642411200070E+01
             8.3738707293000445E+00    5.9179777707000341E+00    1.2731457252200078E+01
             8.3227525762000454E+00    5.9051536095000277E+00    1.4080497642100077E+01
             5.9344285049000298E+00    5.8981604865000348E+00    1.4101749969600077E+01
             7.1039653577000434E+00    5.8899410689000318E+00    1.4828703219100069E+01
             7.2416021047000436E+00    5.8657702092000310E+00    1.6106466757300083E+01
             6.3118250323000309E+00    5.8547577071000276E+00    1.6539601306200090E+01
             9.1743570613000536E+00    5.8876302392000284E+00    1.4641017735300073E+01
             7.3120000000000420E+00    5.9340000000000357E+00    2.1043000000000120E+01
             5.8130000000000361E+00    7.4340000000000384E+00    2.2992000000000136E+01
             8.8130000000000432E+00    4.4340000000000259E+00    2.2992000000000136E+01
             5.8130000000000361E+00    4.4330000000000283E+00    2.2992000000000136E+01
             8.8130000000000432E+00    7.4340000000000384E+00    2.2992000000000136E+01
             1.4780000000000080E+00    1.4780000000000080E+00    2.5082000000000139E+01
             1.4780000000000080E+00    4.4330000000000283E+00    2.5082000000000139E+01
             1.4780000000000080E+00    7.3890000000000420E+00    2.5082000000000139E+01
             4.4340000000000259E+00    1.4780000000000080E+00    2.5082000000000139E+01
             4.4340000000000259E+00    4.4330000000000283E+00    2.5082000000000139E+01
             4.4340000000000259E+00    7.3890000000000420E+00    2.5082000000000139E+01
             7.1920000000000384E+00    1.4780000000000080E+00    2.5082000000000139E+01
             7.1920000000000384E+00    4.4330000000000283E+00    2.5082000000000139E+01
             7.1920000000000384E+00    7.3890000000000420E+00    2.5082000000000139E+01
             1.0148000000000055E+01    1.4780000000000080E+00    2.5082000000000139E+01
             1.0148000000000055E+01    4.4330000000000283E+00    2.5082000000000139E+01
             1.0148000000000055E+01    7.3890000000000420E+00    2.5082000000000139E+01
             1.3104000000000068E+01    1.4780000000000080E+00    2.5082000000000139E+01
             1.3104000000000068E+01    4.4330000000000283E+00    2.5082000000000139E+01
             1.3104000000000068E+01    7.3890000000000420E+00    2.5082000000000139E+01
             0.0000000000000000E+00    0.0000000000000000E+00    2.7172000000000125E+01
             0.0000000000000000E+00    2.9550000000000174E+00    2.7172000000000125E+01
             0.0000000000000000E+00    5.9110000000000280E+00    2.7172000000000125E+01
             2.9560000000000159E+00    0.0000000000000000E+00    2.7172000000000125E+01
             2.9560000000000159E+00    2.9550000000000174E+00    2.7172000000000125E+01
             2.9560000000000159E+00    5.9110000000000280E+00    2.7172000000000125E+01
             5.9120000000000319E+00    0.0000000000000000E+00    2.7172000000000125E+01
             5.9120000000000319E+00    2.9550000000000174E+00    2.7172000000000125E+01
             5.9120000000000319E+00    5.9110000000000280E+00    2.7172000000000125E+01
             8.6700000000000514E+00    0.0000000000000000E+00    2.7172000000000125E+01
             8.6700000000000514E+00    2.9550000000000174E+00    2.7172000000000125E+01
             8.6700000000000514E+00    5.9110000000000280E+00    2.7172000000000125E+01
             1.1626000000000072E+01    0.0000000000000000E+00    2.7172000000000125E+01
             1.1626000000000072E+01    2.9550000000000174E+00    2.7172000000000125E+01
             1.1626000000000072E+01    5.9110000000000280E+00    2.7172000000000125E+01
             1.4780000000000080E+00    1.4780000000000080E+00    2.9262000000000167E+01
             1.4780000000000080E+00    4.4330000000000283E+00    2.9262000000000167E+01
             1.4780000000000080E+00    7.3890000000000420E+00    2.9262000000000167E+01
             4.4340000000000259E+00    1.4780000000000080E+00    2.9262000000000167E+01
             4.4340000000000259E+00    4.4330000000000283E+00    2.9262000000000167E+01
             4.4340000000000259E+00    7.3890000000000420E+00    2.9262000000000167E+01
             7.1920000000000384E+00    1.4780000000000080E+00    2.9262000000000167E+01
             7.1920000000000384E+00    4.4330000000000283E+00    2.9262000000000167E+01
             7.1920000000000384E+00    7.3890000000000420E+00    2.9262000000000167E+01
             1.0148000000000055E+01    1.4780000000000080E+00    2.9262000000000167E+01
             1.0148000000000055E+01    4.4330000000000283E+00    2.9262000000000167E+01
             1.0148000000000055E+01    7.3890000000000420E+00    2.9262000000000167E+01
             1.3104000000000068E+01    1.4780000000000080E+00    2.9262000000000167E+01
             1.3104000000000068E+01    4.4330000000000283E+00    2.9262000000000167E+01
             1.3104000000000068E+01    7.3890000000000420E+00    2.9262000000000167E+01
             0.0000000000000000E+00    0.0000000000000000E+00    3.1352000000000164E+01
             0.0000000000000000E+00    2.9550000000000174E+00    3.1352000000000164E+01
             0.0000000000000000E+00    5.9110000000000280E+00    3.1352000000000164E+01
             2.9560000000000159E+00    0.0000000000000000E+00    3.1352000000000164E+01
             2.9560000000000159E+00    2.9550000000000174E+00    3.1352000000000164E+01
             2.9560000000000159E+00    5.9110000000000280E+00    3.1352000000000164E+01
             5.9120000000000319E+00    0.0000000000000000E+00    3.1352000000000164E+01
             5.9120000000000319E+00    2.9550000000000174E+00    3.1352000000000164E+01
             5.9120000000000319E+00    5.9110000000000280E+00    3.1352000000000164E+01
             8.6700000000000514E+00    0.0000000000000000E+00    3.1352000000000164E+01
             8.6700000000000514E+00    2.9550000000000174E+00    3.1352000000000164E+01
             8.6700000000000514E+00    5.9110000000000280E+00    3.1352000000000164E+01
             1.1626000000000072E+01    0.0000000000000000E+00    3.1352000000000164E+01
             1.1626000000000072E+01    2.9550000000000174E+00    3.1352000000000164E+01
             1.1626000000000072E+01    5.9110000000000280E+00    3.1352000000000164E+01
             1.4780000000000080E+00    1.4780000000000080E+00    3.3442000000000185E+01
             1.4780000000000080E+00    4.4330000000000283E+00    3.3442000000000185E+01
             1.4780000000000080E+00    7.3890000000000420E+00    3.3442000000000185E+01
             4.4340000000000259E+00    1.4780000000000080E+00    3.3442000000000185E+01
             4.4340000000000259E+00    4.4330000000000283E+00    3.3442000000000185E+01
             4.4340000000000259E+00    7.3890000000000420E+00    3.3442000000000185E+01
             7.1920000000000384E+00    1.4780000000000080E+00    3.3442000000000185E+01
             7.1920000000000384E+00    4.4330000000000283E+00    3.3442000000000185E+01
             7.1920000000000384E+00    7.3890000000000420E+00    3.3442000000000185E+01
             1.0148000000000055E+01    1.4780000000000080E+00    3.3442000000000185E+01
             1.0148000000000055E+01    4.4330000000000283E+00    3.3442000000000185E+01
             1.0148000000000055E+01    7.3890000000000420E+00    3.3442000000000185E+01
             1.3104000000000068E+01    1.4780000000000080E+00    3.3442000000000185E+01
             1.3104000000000068E+01    4.4330000000000283E+00    3.3442000000000185E+01
             1.3104000000000068E+01    7.3890000000000420E+00    3.3442000000000185E+01
       &END COORD
       &VELOCITY
             0.0000000000000000E+00    0.0000000000000000E+00    0.0000000000000000E+00
             0.0000000000000000E+00    0.0000000000000000E+00    0.0000000000000000E+00
             0.0000000000000000E+00    0.0000000000000000E+00    0.0000000000000000E+00
             0.0000000000000000E+00    0.0000000000000000E+00    0.0000000000000000E+00
             0.0000000000000000E+00    0.0000000000000000E+00    0.0000000000000000E+00
             0.0000000000000000E+00    0.0000000000000000E+00    0.0000000000000000E+00
             0.0000000000000000E+00    0.0000000000000000E+00    0.0000000000000000E+00
             0.0000000000000000E+00    0.0000000000000000E+00    0.0000000000000000E+00
             0.0000000000000000E+00    0.0000000000000000E+00    0.0000000000000000E+00
             0.0000000000000000E+00    0.0000000000000000E+00    0.0000000000000000E+00
             0.0000000000000000E+00    0.0000000000000000E+00    0.0000000000000000E+00
             0.0000000000000000E+00    0.0000000000000000E+00    0.0000000000000000E+00
             0.0000000000000000E+00    0.0000000000000000E+00    0.0000000000000000E+00
             0.0000000000000000E+00    0.0000000000000000E+00    0.0000000000000000E+00
             0.0000000000000000E+00    0.0000000000000000E+00    0.0000000000000000E+00
             0.0000000000000000E+00    0.0000000000000000E+00    0.0000000000000000E+00
             0.0000000000000000E+00    0.0000000000000000E+00    0.0000000000000000E+00
             0.0000000000000000E+00    0.0000000000000000E+00    0.0000000000000000E+00
             0.0000000000000000E+00    0.0000000000000000E+00    0.0000000000000000E+00
             0.0000000000000000E+00    0.0000000000000000E+00    0.0000000000000000E+00
             0.0000000000000000E+00    0.0000000000000000E+00    0.0000000000000000E+00
             0.0000000000000000E+00    0.0000000000000000E+00    0.0000000000000000E+00
             0.0000000000000000E+00    0.0000000000000000E+00    0.0000000000000000E+00
             0.0000000000000000E+00    0.0000000000000000E+00    0.0000000000000000E+00
             0.0000000000000000E+00    0.0000000000000000E+00    0.0000000000000000E+00
             0.0000000000000000E+00    0.0000000000000000E+00    0.0000000000000000E+00
             0.0000000000000000E+00    0.0000000000000000E+00    0.0000000000000000E+00
             0.0000000000000000E+00    0.0000000000000000E+00    0.0000000000000000E+00
             0.0000000000000000E+00    0.0000000000000000E+00    0.0000000000000000E+00
             0.0000000000000000E+00    0.0000000000000000E+00    0.0000000000000000E+00
             0.0000000000000000E+00    0.0000000000000000E+00    0.0000000000000000E+00
             0.0000000000000000E+00    0.0000000000000000E+00    0.0000000000000000E+00
             0.0000000000000000E+00    0.0000000000000000E+00    0.0000000000000000E+00
             0.0000000000000000E+00    0.0000000000000000E+00    0.0000000000000000E+00
             0.0000000000000000E+00    0.0000000000000000E+00    0.0000000000000000E+00
             0.0000000000000000E+00    0.0000000000000000E+00    0.0000000000000000E+00
             0.0000000000000000E+00    0.0000000000000000E+00    0.0000000000000000E+00
             0.0000000000000000E+00    0.0000000000000000E+00    0.0000000000000000E+00
             0.0000000000000000E+00    0.0000000000000000E+00    0.0000000000000000E+00
             0.0000000000000000E+00    0.0000000000000000E+00    0.0000000000000000E+00
             0.0000000000000000E+00    0.0000000000000000E+00    0.0000000000000000E+00
             0.0000000000000000E+00    0.0000000000000000E+00    0.0000000000000000E+00
             0.0000000000000000E+00    0.0000000000000000E+00    0.0000000000000000E+00
             0.0000000000000000E+00    0.0000000000000000E+00    0.0000000000000000E+00
             0.0000000000000000E+00    0.0000000000000000E+00    0.0000000000000000E+00
             0.0000000000000000E+00    0.0000000000000000E+00    0.0000000000000000E+00
             0.0000000000000000E+00    0.0000000000000000E+00    0.0000000000000000E+00
             0.0000000000000000E+00    0.0000000000000000E+00    0.0000000000000000E+00
             0.0000000000000000E+00    0.0000000000000000E+00    0.0000000000000000E+00
             0.0000000000000000E+00    0.0000000000000000E+00    0.0000000000000000E+00
             0.0000000000000000E+00    0.0000000000000000E+00    0.0000000000000000E+00
             0.0000000000000000E+00    0.0000000000000000E+00    0.0000000000000000E+00
             0.0000000000000000E+00    0.0000000000000000E+00    0.0000000000000000E+00
             0.0000000000000000E+00    0.0000000000000000E+00    0.0000000000000000E+00
             0.0000000000000000E+00    0.0000000000000000E+00    0.0000000000000000E+00
             0.0000000000000000E+00    0.0000000000000000E+00    0.0000000000000000E+00
             0.0000000000000000E+00    0.0000000000000000E+00    0.0000000000000000E+00
             0.0000000000000000E+00    0.0000000000000000E+00    0.0000000000000000E+00
             0.0000000000000000E+00    0.0000000000000000E+00    0.0000000000000000E+00
             0.0000000000000000E+00    0.0000000000000000E+00    0.0000000000000000E+00
             0.0000000000000000E+00    0.0000000000000000E+00    0.0000000000000000E+00
             0.0000000000000000E+00    0.0000000000000000E+00    0.0000000000000000E+00
             0.0000000000000000E+00    0.0000000000000000E+00    0.0000000000000000E+00
             0.0000000000000000E+00    0.0000000000000000E+00    0.0000000000000000E+00
             0.0000000000000000E+00    0.0000000000000000E+00    0.0000000000000000E+00
             0.0000000000000000E+00    0.0000000000000000E+00    0.0000000000000000E+00
             0.0000000000000000E+00    0.0000000000000000E+00    0.0000000000000000E+00
             0.0000000000000000E+00    0.0000000000000000E+00    0.0000000000000000E+00
             0.0000000000000000E+00    0.0000000000000000E+00    0.0000000000000000E+00
             0.0000000000000000E+00    0.0000000000000000E+00    0.0000000000000000E+00
             0.0000000000000000E+00    0.0000000000000000E+00    0.0000000000000000E+00
             0.0000000000000000E+00    0.0000000000000000E+00    0.0000000000000000E+00
             0.0000000000000000E+00    0.0000000000000000E+00    0.0000000000000000E+00
             0.0000000000000000E+00    0.0000000000000000E+00    0.0000000000000000E+00
             0.0000000000000000E+00    0.0000000000000000E+00    0.0000000000000000E+00
             0.0000000000000000E+00    0.0000000000000000E+00    0.0000000000000000E+00
             0.0000000000000000E+00    0.0000000000000000E+00    0.0000000000000000E+00
             0.0000000000000000E+00    0.0000000000000000E+00    0.0000000000000000E+00
             0.0000000000000000E+00    0.0000000000000000E+00    0.0000000000000000E+00
             0.0000000000000000E+00    0.0000000000000000E+00    0.0000000000000000E+00
             0.0000000000000000E+00    0.0000000000000000E+00    0.0000000000000000E+00
             0.0000000000000000E+00    0.0000000000000000E+00    0.0000000000000000E+00
             0.0000000000000000E+00    0.0000000000000000E+00    0.0000000000000000E+00
             0.0000000000000000E+00    0.0000000000000000E+00    0.0000000000000000E+00
             0.0000000000000000E+00    0.0000000000000000E+00    0.0000000000000000E+00
             0.0000000000000000E+00    0.0000000000000000E+00    0.0000000000000000E+00
             0.0000000000000000E+00    0.0000000000000000E+00    0.0000000000000000E+00
             0.0000000000000000E+00    0.0000000000000000E+00    0.0000000000000000E+00
             0.0000000000000000E+00    0.0000000000000000E+00    0.0000000000000000E+00
             0.0000000000000000E+00    0.0000000000000000E+00    0.0000000000000000E+00
             0.0000000000000000E+00    0.0000000000000000E+00    0.0000000000000000E+00
             0.0000000000000000E+00    0.0000000000000000E+00    0.0000000000000000E+00
             0.0000000000000000E+00    0.0000000000000000E+00    0.0000000000000000E+00
             0.0000000000000000E+00    0.0000000000000000E+00    0.0000000000000000E+00
             0.0000000000000000E+00    0.0000000000000000E+00    0.0000000000000000E+00
             0.0000000000000000E+00    0.0000000000000000E+00    0.0000000000000000E+00
             0.0000000000000000E+00    0.0000000000000000E+00    0.0000000000000000E+00
             0.0000000000000000E+00    0.0000000000000000E+00    0.0000000000000000E+00
             0.0000000000000000E+00    0.0000000000000000E+00    0.0000000000000000E+00
             0.0000000000000000E+00    0.0000000000000000E+00    0.0000000000000000E+00
             0.0000000000000000E+00    0.0000000000000000E+00    0.0000000000000000E+00
             0.0000000000000000E+00    0.0000000000000000E+00    0.0000000000000000E+00
             0.0000000000000000E+00    0.0000000000000000E+00    0.0000000000000000E+00
             0.0000000000000000E+00    0.0000000000000000E+00    0.0000000000000000E+00
             0.0000000000000000E+00    0.0000000000000000E+00    0.0000000000000000E+00
             0.0000000000000000E+00    0.0000000000000000E+00    0.0000000000000000E+00
             0.0000000000000000E+00    0.0000000000000000E+00    0.0000000000000000E+00
             0.0000000000000000E+00    0.0000000000000000E+00    0.0000000000000000E+00
             0.0000000000000000E+00    0.0000000000000000E+00    0.0000000000000000E+00
             0.0000000000000000E+00    0.0000000000000000E+00    0.0000000000000000E+00
             0.0000000000000000E+00    0.0000000000000000E+00    0.0000000000000000E+00
             0.0000000000000000E+00    0.0000000000000000E+00    0.0000000000000000E+00
             0.0000000000000000E+00    0.0000000000000000E+00    0.0000000000000000E+00
             0.0000000000000000E+00    0.0000000000000000E+00    0.0000000000000000E+00
             0.0000000000000000E+00    0.0000000000000000E+00    0.0000000000000000E+00
             0.0000000000000000E+00    0.0000000000000000E+00    0.0000000000000000E+00
             0.0000000000000000E+00    0.0000000000000000E+00    0.0000000000000000E+00
             0.0000000000000000E+00    0.0000000000000000E+00    0.0000000000000000E+00
             0.0000000000000000E+00    0.0000000000000000E+00    0.0000000000000000E+00
             0.0000000000000000E+00    0.0000000000000000E+00    0.0000000000000000E+00
             0.0000000000000000E+00    0.0000000000000000E+00    0.0000000000000000E+00
             0.0000000000000000E+00    0.0000000000000000E+00    0.0000000000000000E+00
             0.0000000000000000E+00    0.0000000000000000E+00    0.0000000000000000E+00
             0.0000000000000000E+00    0.0000000000000000E+00    0.0000000000000000E+00
             0.0000000000000000E+00    0.0000000000000000E+00    0.0000000000000000E+00
             0.0000000000000000E+00    0.0000000000000000E+00    0.0000000000000000E+00
             0.0000000000000000E+00    0.0000000000000000E+00    0.0000000000000000E+00
             0.0000000000000000E+00    0.0000000000000000E+00    0.0000000000000000E+00
             0.0000000000000000E+00    0.0000000000000000E+00    0.0000000000000000E+00
             0.0000000000000000E+00    0.0000000000000000E+00    0.0000000000000000E+00
             0.0000000000000000E+00    0.0000000000000000E+00    0.0000000000000000E+00
             0.0000000000000000E+00    0.0000000000000000E+00    0.0000000000000000E+00
             0.0000000000000000E+00    0.0000000000000000E+00    0.0000000000000000E+00
             0.0000000000000000E+00    0.0000000000000000E+00    0.0000000000000000E+00
             0.0000000000000000E+00    0.0000000000000000E+00    0.0000000000000000E+00
             0.0000000000000000E+00    0.0000000000000000E+00    0.0000000000000000E+00
             0.0000000000000000E+00    0.0000000000000000E+00    0.0000000000000000E+00
             0.0000000000000000E+00    0.0000000000000000E+00    0.0000000000000000E+00
             0.0000000000000000E+00    0.0000000000000000E+00    0.0000000000000000E+00
             0.0000000000000000E+00    0.0000000000000000E+00    0.0000000000000000E+00
             0.0000000000000000E+00    0.0000000000000000E+00    0.0000000000000000E+00
             0.0000000000000000E+00    0.0000000000000000E+00    0.0000000000000000E+00
             0.0000000000000000E+00    0.0000000000000000E+00    0.0000000000000000E+00
             0.0000000000000000E+00    0.0000000000000000E+00    0.0000000000000000E+00
             0.0000000000000000E+00    0.0000000000000000E+00    0.0000000000000000E+00