#     Step Nr.          Time[fs]        Kin.[a.u.]          Temp[K]            Pot.[a.u.]        Cons Qty[a.u.]        UsedTime[s]
         0            0.000000         0.725359054       300.000000000     -9597.583306395     -9596.857947340         0.000000000
         1            0.500000         0.735278170       304.102430105     -9597.584988278     -9596.858026731       426.312984448
         2            1.000000         0.711445604       294.245560202     -9597.588345028     -9596.858093616       185.432575759
         3            1.500000         0.685538559       283.530710153     -9597.591417310     -9596.858134776       176.219070442
         4            2.000000         0.718417080       297.128880825     -9597.594248149     -9596.858250661       182.779221773
         5            2.500000         0.770208049       318.549018372     -9597.594518123     -9596.858347903       180.744680542
         6            3.000000         0.734157517       303.638941087     -9597.589606551     -9596.858246672       167.601725947
         7            3.500000         0.722101276       298.652620936     -9597.581750762     -9596.857984896       169.279753983
         8            4.000000         0.706877043       292.356056809     -9597.575463372     -9596.857727934       163.755150817
         9            4.500000         0.712790000       294.801586656     -9597.575046577     -9596.857667484       163.767009474
        10            5.000000         0.734438087       303.754981549     -9597.580976145     -9596.857861435       163.360408455
        11            5.500000         0.709992411       293.644536492     -9597.589837889     -9596.858182501       172.413295925
        12            6.000000         0.691781259       286.112617437     -9597.597845916     -9596.858426329       169.349147532
        13            6.500000         0.702148945       290.400570732     -9597.602461152     -9596.858481931       157.387857176
        14            7.000000         0.732614740       303.000866336     -9597.603354976     -9596.858356970       175.567448854
        15            7.500000         0.701286243       290.043767278     -9597.602129599     -9596.858174060       163.359211735
        16            8.000000         0.706410504       292.163101590     -9597.601370262     -9596.858075325       172.855742835
        17            8.500000         0.701407182       290.093786558     -9597.603854199     -9596.858074998       183.264040273
        18            9.000000         0.716663681       296.403695605     -9597.609773251     -9596.858133688       182.229891594
        19            9.500000         0.704470170       291.360602245     -9597.618111949     -9596.858227156       171.515955362
        20           10.000000         0.743238866       307.394880467     -9597.627558603     -9596.858335790       173.704076570
        21           10.500000         0.761702689       315.031300978     -9597.635420093     -9596.858387347       182.729867224
        22           11.000000         0.742166111       306.951201604     -9597.640652612     -9596.858405532       167.732912648
        23           11.500000         0.710060664       293.672765280     -9597.644075533     -9596.858456048       168.687043581
        24           12.000000         0.754948970       312.238042181     -9597.645124790     -9596.858505433       178.303418737
        25           12.500000         0.730096897       301.959516157     -9597.642841823     -9596.858430562       188.297693547
        26           13.000000         0.743319818       307.428361361     -9597.638902685     -9596.858261056       190.124805111
        27           13.500000         0.696826383       288.199221740     -9597.635505510     -9596.858046505       172.706936494
        28           14.000000         0.701884445       290.291176850     -9597.636104793     -9596.857948068       183.409298953
        29           14.500000         0.725320406       299.984015417     -9597.642447671     -9596.857997862       186.977719512
        30           15.000000         0.715886671       296.082333328     -9597.653144099     -9596.858205104       188.472172190
        31           15.500000         0.723518065       299.238588450     -9597.665219347     -9596.858489345       169.473968007
        32           16.000000         0.716612332       296.382458292     -9597.674849189     -9596.858739601       168.367772665
        33           16.500000         0.738924909       305.610678435     -9597.679758429     -9596.858831430       185.944196600
        34           17.000000         0.745732568       308.426246225     -9597.676969683     -9596.858675423       184.614012089
        35           17.500000         0.724683972       299.720793841     -9597.668578926     -9596.858353572       182.280121949
        36           18.000000         0.690671972       285.653829638     -9597.660928725     -9596.858125178       178.898061451
        37           18.500000         0.705981949       291.985856453     -9597.657879125     -9596.858101154       171.933538679
        38           19.000000         0.705708736       291.872858807     -9597.659161070     -9596.858211068       173.276750576
        39           19.500000         0.703104300       290.795694715     -9597.663918374     -9596.858340778       173.365368478
        40           20.000000         0.732371475       302.900254788     -9597.671185396     -9596.858483205       175.277419727
        41           20.500000         0.772502277       319.497884198     -9597.677411042     -9596.858608114       173.326301605
        42           21.000000         0.777740753       321.664456566     -9597.678540905     -9596.858681548       178.843952220
        43           21.500000         0.738972970       305.630555693     -9597.673980980     -9596.858695467       185.453198452
        44           22.000000         0.722930544       298.995596627     -9597.664074949     -9596.858642893       178.596533619
        45           22.500000         0.752455766       311.206882290     -9597.650022070     -9596.858497450       179.506399728
        46           23.000000         0.696640913       288.122513573     -9597.633545949     -9596.858215266       185.557923649
        47           23.500000         0.707018034       292.414368879     -9597.617965318     -9596.857870158       178.983783897
        48           24.000000         0.701524602       290.142349817     -9597.608478801     -9596.857636938       184.379882682
        49           24.500000         0.686076415       283.753160917     -9597.609134424     -9596.857675882       185.266611077
        50           25.000000         0.721706552       298.489367782     -9597.618802209     -9596.857993106       174.989144348
        51           25.500000         0.737840239       305.162071598     -9597.631468837     -9596.858381115       174.466474574
        52           26.000000         0.696340154       287.998123099     -9597.641667936     -9596.858671624       172.474658601
        53           26.500000         0.724445755       299.622270111     -9597.646228172     -9596.858767989       168.944235034
        54           27.000000         0.715023884       295.725494616     -9597.643341858     -9596.858625482       169.129322749
        55           27.500000         0.709077668       293.266209491     -9597.635161312     -9596.858353442       183.373727765
        56           28.000000         0.678349089       280.557229554     -9597.625943826     -9596.858062916       173.774596009
        57           28.500000         0.715641670       295.981003872     -9597.620052899     -9596.857866770       167.721380267
        58           29.000000         0.708073624       292.850948861     -9597.620000932     -9596.857796244       173.641574021
        59           29.500000         0.721953427       298.591472617     -9597.626449995     -9596.857904899       175.777431764
        60           30.000000         0.712158210       294.540285587     -9597.637880462     -9596.858173944       171.417613979
        61           30.500000         0.705977134       291.983865078     -9597.650373842     -9596.858497469       173.421548881
        62           31.000000         0.702108612       290.383889482     -9597.659976749     -9596.858743706       179.135042809
        63           31.500000         0.721146401       298.257695786     -9597.663593319     -9596.858820001       172.615472779
        64           32.000000         0.723333546       299.162273495     -9597.660525589     -9596.858705516       182.802927185
        65           32.500000         0.715510285       295.926664667     -9597.652565339     -9596.858479277       182.613757782
        66           33.000000         0.714417178       295.474568376     -9597.642117094     -9596.858201213       188.240687415
        67           33.500000         0.689949851       285.355168487     -9597.634076454     -9596.857960699       193.712420225
        68           34.000000         0.673829868       278.688132585     -9597.632946203     -9596.857846919       183.090887662
        69           34.500000         0.716620462       296.385820730     -9597.639794331     -9596.857949802       182.751350526
        70           35.000000         0.701638086       290.189285739     -9597.652300346     -9596.858201965       187.738131154
        71           35.500000         0.723694060       299.311377705     -9597.666877476     -9596.858486377       182.123610333
        72           36.000000         0.727602148       300.927717392     -9597.679915487     -9596.858685300       182.781959176
        73           36.500000         0.709994450       293.645379846     -9597.688400735     -9596.858734835       171.813908864
        74           37.000000         0.698242964       288.785102769     -9597.691241253     -9596.858686257       167.320354138
        75           37.500000         0.690034277       285.390086090     -9597.690273685     -9596.858653779       167.789815806
        76           38.000000         0.672938019       278.319274334     -9597.687580804     -9596.858636053       168.726770543
        77           38.500000         0.681357277       281.801380875     -9597.683961267     -9596.858549246       172.560509428
        78           39.000000         0.753673232       311.710411769     -9597.680225445     -9596.858330386       172.493794356
        79           39.500000         0.725116512       299.899687345     -9597.677777558     -9596.858105555       182.590571716
        80           40.000000         0.721987313       298.605487136     -9597.679224381     -9596.858082644       177.512119565
        81           40.500000         0.718311113       297.085054249     -9597.685157636     -9596.858316589       171.487098891
        82           41.000000         0.682260646       282.175003757     -9597.692364378     -9596.858668480       170.623658150
        83           41.500000         0.679196059       280.907526321     -9597.697218771     -9596.858951585       166.913769007
        84           42.000000         0.680056949       281.263580574     -9597.696489124     -9596.859003410       166.967791449
        85           42.500000         0.660637969       273.232118048     -9597.689357836     -9596.858801387       168.021934133
        86           43.000000         0.657856024       272.081538030     -9597.679183941     -9596.858473999       165.263021320
        87           43.500000         0.709114136       293.281292259     -9597.670669007     -9596.858265753       175.591011520
        88           44.000000         0.684614017       283.148330480     -9597.665731381     -9596.858308330       173.900405586
        89           44.500000         0.716193282       296.209143872     -9597.662951554     -9596.858476771       178.127621837
        90           45.000000         0.734552451       303.802280890     -9597.659301748     -9596.858545204       178.739670295
        91           45.500000         0.714475765       295.498799253     -9597.652980481     -9596.858324525       179.665201981
        92           46.000000         0.743205734       307.381177254     -9597.646633488     -9596.857957580       178.815773010
        93           46.500000         0.731300857       302.457459899     -9597.645510365     -9596.857789128       177.547330201
        94           47.000000         0.713596145       295.134998439     -9597.651860642     -9596.857997406       196.674186055
        95           47.500000         0.728243746       301.193074735     -9597.663185911     -9596.858394999       194.578544181
        96           48.000000         0.733785877       303.485234925     -9597.674302029     -9596.858745970       182.956917223
        97           48.500000         0.722797682       298.940646398     -9597.680367036     -9596.858860567       191.587199870
        98           49.000000         0.695811580       287.779510939     -9597.680720287     -9596.858761345       190.761709832
        99           49.500000         0.673873326       278.706106366     -9597.676242595     -9596.858548392       188.085546345
       100           50.000000         0.661933785       273.768052392     -9597.671300298     -9596.858365332       183.679274302
       101           50.500000         0.664466020       274.815354831     -9597.669894288     -9596.858328610       182.287854586
       102           51.000000         0.669879223       277.054192434     -9597.672899631     -9596.858465303       177.263003811
       103           51.500000         0.691956300       286.185012498     -9597.677528858     -9596.858633586       172.298112776
       104           52.000000         0.713714856       295.184095975     -9597.679761307     -9596.858637252       177.948862612
       105           52.500000         0.713713084       295.183363013     -9597.678278027     -9596.858465131       185.538207099
       106           53.000000         0.737842810       305.163135063     -9597.674737407     -9596.858287753       182.479027379
       107           53.500000         0.711634516       294.323691673     -9597.671610745     -9596.858231731       178.471130714
       108           54.000000         0.724018273       299.445468407     -9597.670463888     -9596.858293762       167.217702705
       109           54.500000         0.736088354       304.437512487     -9597.670816622     -9596.858360555       174.443744384
       110           55.000000         0.726064691       300.291842958     -9597.670638056     -9596.858310031       176.594510328
       111           55.500000         0.762176523       315.227273504     -9597.669687565     -9596.858202129       178.336352747
       112           56.000000         0.714041366       295.319136759     -9597.669927001     -9596.858147219       171.406155787
       113           56.500000         0.684532744       283.114716914     -9597.673417484     -9596.858258466       176.558057334
       114           57.000000         0.715512742       295.927680675     -9597.679653389     -9596.858440023       184.411506593
       115           57.500000         0.726181969       300.340347756     -9597.685541119     -9596.858588934       184.510728631
       116           58.000000         0.749446272       309.962190780     -9597.687587158     -9596.858641970       178.724871438
       117           58.500000         0.730046683       301.938748391     -9597.684722711     -9596.858593821       182.735925458
       118           59.000000         0.733956822       303.555935895     -9597.677624943     -9596.858451270       182.245492224
       119           59.500000         0.735434786       304.167204291     -9597.668115741     -9596.858256629       184.765552986
       120           60.000000         0.715525060       295.932775334     -9597.659807414     -9596.858095536       182.116760805
       121           60.500000         0.725407209       300.019916191     -9597.655437296     -9596.858040839       187.099584647
       122           61.000000         0.778225098       321.864775696     -9597.655332165     -9596.858088620       184.238928329
       123           61.500000         0.769376543       318.205117324     -9597.657749535     -9596.858199568       183.299279619
       124           62.000000         0.740706837       306.347662977     -9597.660101580     -9596.858342965       175.015494663
       125           62.500000         0.718701218       297.246397043     -9597.660014159     -9596.858469907       181.232115004
       126           63.000000         0.719745005       297.678094929     -9597.656324242     -9596.858524235       189.468093134
       127           63.500000         0.698078511       288.717087273     -9597.650340239     -9596.858510803       189.007889368
       128           64.000000         0.707072112       292.436735089     -9597.642779204     -9596.858388475       178.419330038
       129           64.500000         0.687345076       284.277864189     -9597.634520157     -9596.858190862       188.815319918
       130           65.000000         0.715808732       296.050098679     -9597.628408947     -9596.858018418       181.984317008
       131           65.500000         0.748902539       309.737309342     -9597.626041264     -9596.857976060       183.923935022
       132           66.000000         0.717079165       296.575534766     -9597.627426513     -9596.858058678       184.690514490
       133           66.500000         0.725911701       300.228568213     -9597.631772087     -9596.858164894       174.009475548
       134           67.000000         0.716085499       296.164566108     -9597.637641554     -9596.858201858       173.050964933
       135           67.500000         0.716168165       296.198756018     -9597.644345661     -9596.858226357       179.800988842
       136           68.000000         0.725183460       299.927376316     -9597.652379376     -9596.858306793       182.055323821
       137           68.500000         0.719193430       297.449969881     -9597.661279201     -9596.858467231       183.461425494
       138           69.000000         0.747372258       309.104402945     -9597.668392019     -9596.858598561       188.148386989
       139           69.500000         0.739210982       305.728994734     -9597.671604937     -9596.858613253       184.819672190
       140           70.000000         0.763838301       315.914565369     -9597.670364419     -9596.858502008       190.835534982
       141           70.500000         0.756217365       312.762635518     -9597.665553471     -9596.858281880       182.753536128
       142           71.000000         0.719946469       297.761418322     -9597.661068735     -9596.858096315       187.250834819
       143           71.500000         0.723567384       299.258986153     -9597.661117591     -9596.858091159       188.586758830
       144           72.000000         0.718396226       297.120255757     -9597.665712053     -9596.858285487       187.573333580
       145           72.500000         0.698067545       288.712551829     -9597.672333863     -9596.858513296       184.416741084
       146           73.000000         0.709967430       293.634204723     -9597.678454843     -9596.858670199       176.542490050
       147           73.500000         0.702517566       290.553028102     -9597.681749221     -9596.858677757       172.418264467
       148           74.000000         0.729016155       301.512533746     -9597.682159802     -9596.858576277       185.038982306
       149           74.500000         0.749902440       310.150856509     -9597.680292871     -9596.858455743       189.465364464
       150           75.000000         0.721177298       298.270474610     -9597.677109789     -9596.858379761       187.356799193
       151           75.500000         0.734587276       303.816684246     -9597.673335286     -9596.858352982       182.524709739
       152           76.000000         0.725599381       300.099396109     -9597.668943975     -9596.858296014       183.226884820
       153           76.500000         0.703607082       291.003639386     -9597.664921659     -9596.858173576       183.781352162
       154           77.000000         0.708624882       293.078942600     -9597.663459929     -9596.858073331       185.557973832
       155           77.500000         0.746573991       308.774249148     -9597.665940811     -9596.858065917       171.492971826
       156           78.000000         0.739502552       305.849584833     -9597.671821285     -9596.858209876       167.293530490
       157           78.500000         0.730870255       302.279367776     -9597.679111691     -9596.858461843       162.646174923
       158           79.000000         0.704113912       291.213258058     -9597.685390647     -9596.858687539       166.364261925
       159           79.500000         0.680331098       281.376965374     -9597.688543134     -9596.858789234       166.865396917
       160           80.000000         0.664010978       274.627155103     -9597.688359044     -9596.858761860       174.264393818
       161           80.500000         0.657690474       272.013068554     -9597.686250598     -9596.858689652       171.682276774
       162           81.000000         0.689660233       285.235386066     -9597.682323396     -9596.858616951       182.306971923
       163           81.500000         0.707203435       292.491048575     -9597.676902609     -9596.858569108       183.257250965
       164           82.000000         0.713358085       295.036539632     -9597.670187953     -9596.858511006       178.034505859
       165           82.500000         0.726567289       300.499711534     -9597.662163654     -9596.858387897       173.325306866
       166           83.000000         0.730123162       301.970379122     -9597.653389854     -9596.858191809       182.177560568
       167           83.500000         0.741451327       306.655575316     -9597.645922510     -9596.857997539       183.529536169
       168           84.000000         0.773080761       319.737138369     -9597.641750982     -9596.857914471       184.429939080
       169           84.500000         0.768594262       317.881574737     -9597.640846901     -9596.857953900       177.854227994
       170           85.000000         0.726776335       300.586170799     -9597.642953254     -9596.858067861       172.838566024
       171           85.500000         0.706731755       292.295967414     -9597.647777890     -9596.858209840       171.162835754
       172           86.000000         0.705860230       291.935515018     -9597.654302995     -9596.858355552       175.803859819
       173           86.500000         0.720611014       298.036266099     -9597.660499968     -9596.858429135       181.522333283
       174           87.000000         0.738743604       305.535692738     -9597.664710667     -9596.858412294       170.589014292
       175           87.500000         0.736957675       304.797053493     -9597.667356032     -9596.858375799       190.017662074
       176           88.000000         0.743853824       307.649219820     -9597.668307335     -9596.858381972       188.097347688
       177           88.500000         0.728492445       301.295933670     -9597.668120170     -9596.858403274       187.118741993
       178           89.000000         0.708101805       292.862603988     -9597.667151133     -9596.858378576       171.631926056
       179           89.500000         0.702243210       290.439557784     -9597.666390656     -9596.858268182       171.654757392
       180           90.000000         0.698910770       289.061299487     -9597.668422262     -9596.858239934       172.924306706
       181           90.500000         0.688087903       284.585088995     -9597.674028091     -9596.858378931       171.004429333
       182           91.000000         0.697521509       288.486717602     -9597.681167132     -9596.858568763       176.804644186
       183           91.500000         0.710290929       293.767999947     -9597.687074607     -9596.858680045       176.822250769
       184           92.000000         0.740232581       306.151516297     -9597.689971394     -9596.858674168       183.968557987
       185           92.500000         0.741190743       306.547800747     -9597.688728390     -9596.858571654       182.498723324
       186           93.000000         0.757313133       313.215832126     -9597.683649309     -9596.858449712       189.526711259
       187           93.500000         0.706592552       292.238394682     -9597.676475703     -9596.858341628       188.626613371
       188           94.000000         0.703654501       291.023251188     -9597.669413866     -9596.858215366       187.862645883
       189           94.500000         0.734553551       303.802735925     -9597.664996369     -9596.858127341       177.317791883
       190           95.000000         0.713590372       295.132610969     -9597.663507186     -9596.858122983       170.780771237
       191           95.500000         0.728653701       301.362627411     -9597.664688042     -9596.858212022       174.412347063
       192           96.000000         0.728816346       301.429895321     -9597.667366579     -9596.858317894       172.363250285
       193           96.500000         0.719631577       297.631182612     -9597.670107653     -9596.858362596       161.915152274
       194           97.000000         0.721963728       298.595732679     -9597.673043980     -9596.858390433       172.691157330
       195           97.500000         0.696959494       288.254274719     -9597.675533025     -9596.858437660       188.190552365
       196           98.000000         0.713924217       295.270685300     -9597.677919952     -9596.858505817       190.884760533
       197           98.500000         0.700717945       289.808726065     -9597.679893524     -9596.858548569       187.830938969
       198           99.000000         0.728814447       301.429109924     -9597.680585539     -9596.858508217       187.849055760
       199           99.500000         0.737849646       305.165962363     -9597.680168299     -9596.858451600       187.651603900
       200          100.000000         0.732070946       302.775959597     -9597.678102057     -9596.858438622       185.063374337
       201          100.500000         0.721029442       298.209323273     -9597.675260772     -9596.858448358       177.642121226
       202          101.000000         0.752854237       311.371685074     -9597.670960713     -9596.858382534       189.211531624
       203          101.500000         0.723403030       299.191011193     -9597.664957487     -9596.858206081       178.563978456
       204          102.000000         0.731296155       302.455515370     -9597.659872417     -9596.858084891       185.439417850
       205          102.500000         0.729145637       301.566086363     -9597.656978164     -9596.858095641       173.903316077
       206          103.000000         0.708222200       292.912397835     -9597.655971178     -9596.858189640       179.271752104
       207          103.500000         0.701231282       290.021036150     -9597.656353416     -9596.858283854       183.950409755
       208          104.000000         0.713033022       294.902097685     -9597.657375932     -9596.858337339       188.233738150
       209          104.500000         0.745651589       308.392754203     -9597.657548776     -9596.858321484       186.377462797
       210          105.000000         0.745248918       308.226214204     -9597.655080180     -9596.858266082       179.304301698
       211          105.500000         0.739754103       305.953623343     -9597.651086853     -9596.858217003       179.071352884
       212          106.000000         0.696415744       288.029386119     -9597.647804386     -9596.858216727       178.858390681
       213          106.500000         0.711947071       294.452961009     -9597.646173225     -9596.858201215       178.545089953
       214          107.000000         0.708402382       292.986919082     -9597.646243467     -9596.858156456       181.194141328
       215          107.500000         0.719434113       297.549513752     -9597.649036145     -9596.858110018       183.098361757
       216          108.000000         0.720228303       297.877981449     -9597.655926650     -9596.858159696       189.146622248
       217          108.500000         0.726315151       300.395430333     -9597.665584304     -9596.858318335       189.633098081
       218          109.000000         0.719742535       297.677073490     -9597.675681939     -9596.858539501       185.310065869
       219          109.500000         0.741727157       306.769655209     -9597.683729777     -9596.858750194       179.867677275
       220          110.000000         0.781146917       323.073206065     -9597.685630436     -9596.858783308       174.043483876
       221          110.500000         0.739658729       305.914177732     -9597.680156325     -9596.858539909       172.649810258
       222          111.000000         0.728604428       301.342248419     -9597.671863372     -9596.858231388       167.054341324
       223          111.500000         0.727256226       300.784647997     -9597.665620949     -9596.858061343       183.947642554
       224          112.000000         0.718508346       297.166627385     -9597.663629876     -9596.858089475       169.392992835
       225          112.500000         0.719584487       297.611706671     -9597.665178816     -9596.858256388       172.997032382
       226          113.000000         0.738016425       305.234940136     -9597.667177172     -9596.858414782       177.934588779
       227          113.500000         0.727845232       301.028253815     -9597.666805590     -9596.858471036       185.589425582