 # Version information for this restart file 
 # current date 2024-02-04 16:48:02.965
 # current working dir /gpfs/home/cahart/transport/au-wire-ismael/water-166_au-wire-only-free/water-166_aspc_ADDED_MOS-1000
 # Program compiled at                              Thu 21 Sep 19:20:17 BST 2023
 # Program compiled on                                           hx1-c12-login-1
 # Program compiled for                                                    local
 # Source code revision number                                       git:5518aa6
 &GLOBAL
   PREFERRED_DIAG_LIBRARY  SCALAPACK
   EXTENDED_FFT_LENGTHS  T
   PRINT_LEVEL  MEDIUM
   PROJECT_NAME 2_dft_wfn
   RUN_TYPE  MD
   WALLTIME 23:30:00
 &END GLOBAL
 &MOTION
   &MD
     ENSEMBLE  NVT
     STEPS  100000
     TIMESTEP     4.9999999999999989E-01
     STEP_START_VAL  1000
     TIME_START_VAL     4.9999999999999625E+02
     ECONS_START_VAL    -9.5968579473403915E+03
     TEMPERATURE     3.0000000000000000E+02
     &THERMOSTAT
       TYPE  CSVR
       &CSVR
         TIMECON     9.9999999999999978E-01
         &THERMOSTAT_ENERGY
               6.4285588624410805E-02
         &END THERMOSTAT_ENERGY
         &RNG_INIT
Wiener process for Thermostat # 1        1 F T F  -3.7623406391295583E-01         220738464.0        1424008428.0        1399869185.0        1917770520.0         406843828.0        1477085453.0             12345.0             12345.0             12345.0             12345.0             12345.0             12345.0             12345.0             12345.0             12345.0             12345.0             12345.0             12345.0
         &END RNG_INIT
       &END CSVR
     &END THERMOSTAT
     &AVERAGES  T
       &RESTART_AVERAGES
         ITIMES_START  1
         AVECPU     1.7844493652366108E+02
         AVEHUGONIOT     0.0000000000000000E+00
         AVETEMP_BARO     0.0000000000000000E+00
         AVEPOT    -9.5976424617943176E+03
         AVEKIN     7.2164409730368928E-01
         AVETEMP     2.9846353731147394E+02
         AVEKIN_QM     0.0000000000000000E+00
         AVETEMP_QM     0.0000000000000000E+00
         AVEVOL     1.3694120778871363E+05
         AVECELL_A     3.3659423933732498E+01
         AVECELL_B     2.9149970462827618E+01
         AVECELL_C     1.3956912505130842E+02
         AVEALPHA     9.0000000000000000E+01
         AVEBETA     9.0000000000000000E+01
         AVEGAMMA     9.0000000000000000E+01
         AVE_ECONS    -1.0153597667703967E-01
         AVE_PRESS     0.0000000000000000E+00
         AVE_PXX     0.0000000000000000E+00
       &END RESTART_AVERAGES
     &END AVERAGES
   &END MD
   &CONSTRAINT
     &FIXED_ATOMS
       LIST  1..432 943..1338
     &END FIXED_ATOMS
   &END CONSTRAINT
   &PRINT
     &TRAJECTORY  ON
       UNIT angstrom
       FORMAT  XMOL
       PRINT_ATOM_KIND  T
       &EACH
         MD  1
       &END EACH
     &END TRAJECTORY
     &VELOCITIES  ON
       FORMAT  XMOL
       PRINT_ATOM_KIND  T
       &EACH
         MD  1
       &END EACH
     &END VELOCITIES
     &FORCES  SILENT
       FORMAT  XMOL
       PRINT_ATOM_KIND  T
       &EACH
         MD  1
       &END EACH
     &END FORCES
     &RESTART  ON
       &EACH
         MD  1
       &END EACH
     &END RESTART
   &END PRINT
 &END MOTION
 &FORCE_EVAL
   METHOD  QS
   &DFT
     BASIS_SET_FILE_NAME BASIS_MOLOPT
     BASIS_SET_FILE_NAME BASIS_MOLOPT_UCL
     BASIS_SET_FILE_NAME GTH_BASIS_SETS
     BASIS_SET_FILE_NAME BASIS_CUSTOM
     POTENTIAL_FILE_NAME GTH_POTENTIALS
     &SCF
       MAX_SCF  200
       EPS_SCF     9.9999999999999995E-08
       SCF_GUESS  RESTART
       ADDED_MOS  1000
       &SMEAR  T
         METHOD  FERMI_DIRAC
         ELECTRONIC_TEMPERATURE     3.0000000000000000E+02
       &END SMEAR
       &MIXING  T
         METHOD  BROYDEN_MIXING
         ALPHA     2.9999999999999999E-01
         NBUFFER  8
       &END MIXING
       &PRINT
         &RESTART  SILENT
           FILENAME 
         &END RESTART
       &END PRINT
     &END SCF
     &QS
       EXTRAPOLATION  ASPC
     &END QS
     &MGRID
       NGRIDS  5
       CUTOFF     5.0000000000000000E+02
     &END MGRID
     &XC
       DENSITY_CUTOFF     1.0000000000000000E-10
       GRADIENT_CUTOFF     1.0000000000000000E-10
       TAU_CUTOFF     1.0000000000000000E-10
       &XC_FUNCTIONAL  NO_SHORTCUT
         &PBE  T
         &END PBE
       &END XC_FUNCTIONAL
       &VDW_POTENTIAL
         POTENTIAL_TYPE  PAIR_POTENTIAL
         &PAIR_POTENTIAL
           R_CUTOFF     8.0000000000000000E+00
           TYPE  DFTD3
           PARAMETER_FILE_NAME dftd3.dat
           REFERENCE_FUNCTIONAL PBE
           EPS_CN     1.0000000000000000E-02
           CALCULATE_C9_TERM  T
           REFERENCE_C9_TERM  T
           LONG_RANGE_CORRECTION  T
         &END PAIR_POTENTIAL
       &END VDW_POTENTIAL
     &END XC
     &POISSON
       POISSON_SOLVER  PERIODIC
       PERIODIC  XYZ
     &END POISSON
     &PRINT
       &E_DENSITY_CUBE  ON
         STRIDE  1 1 1
         &EACH
           MD  20
         &END EACH
       &END E_DENSITY_CUBE
       &V_HARTREE_CUBE  SILENT
         STRIDE  1 1 1
         &EACH
           MD  20
         &END EACH
       &END V_HARTREE_CUBE
       &HIRSHFELD  SILENT
         FILENAME charges
         SHAPE_FUNCTION  DENSITY
       &END HIRSHFELD
     &END PRINT
   &END DFT
   &SUBSYS
     &CELL
       A     1.7811800000000002E+01    0.0000000000000000E+00    0.0000000000000000E+00
       B     0.0000000000000000E+00    1.5425500000000000E+01    0.0000000000000000E+00
       C     0.0000000000000000E+00    0.0000000000000000E+00    7.3856800000000007E+01
       PERIODIC  XYZ
       MULTIPLE_UNIT_CELL  1 1 1
     &END CELL
     &COORD
Au_lead    0.0000000000000000E+00    3.4279000000000002E+00    0.0000000000000000E+00
Au_lead    0.0000000000000000E+00    8.5696999999999992E+00    0.0000000000000000E+00
Au_lead    0.0000000000000000E+00    1.3711600000000001E+01    0.0000000000000000E+00
Au_lead    1.4843000000000000E+00    8.5700000000000032E-01    0.0000000000000000E+00
Au_lead    1.4843000000000000E+00    5.9988000000000001E+00    0.0000000000000000E+00
Au_lead    1.4843000000000000E+00    1.1140700000000004E+01    0.0000000000000000E+00
Au_lead    2.9685999999999999E+00    3.4279000000000002E+00    0.0000000000000000E+00
Au_lead    2.9685999999999999E+00    8.5696999999999992E+00    0.0000000000000000E+00
Au_lead    2.9685999999999999E+00    1.3711600000000001E+01    0.0000000000000000E+00
Au_lead    4.4530000000000003E+00    8.5700000000000032E-01    0.0000000000000000E+00
Au_lead    4.4530000000000003E+00    5.9988000000000001E+00    0.0000000000000000E+00
Au_lead    4.4530000000000003E+00    1.1140700000000004E+01    0.0000000000000000E+00
Au_lead    5.9373000000000014E+00    3.4279000000000002E+00    0.0000000000000000E+00
Au_lead    5.9373000000000014E+00    8.5696999999999992E+00    0.0000000000000000E+00
Au_lead    5.9373000000000014E+00    1.3711600000000001E+01    0.0000000000000000E+00
Au_lead    7.4216000000000024E+00    8.5700000000000032E-01    0.0000000000000000E+00
Au_lead    7.4216000000000024E+00    5.9988000000000001E+00    0.0000000000000000E+00
Au_lead    7.4216000000000024E+00    1.1140700000000004E+01    0.0000000000000000E+00
Au_lead    8.9059000000000008E+00    3.4279000000000002E+00    0.0000000000000000E+00
Au_lead    8.9059000000000008E+00    8.5696999999999992E+00    0.0000000000000000E+00
Au_lead    8.9059000000000008E+00    1.3711600000000001E+01    0.0000000000000000E+00
Au_lead    1.0390300000000000E+01    8.5700000000000032E-01    0.0000000000000000E+00
Au_lead    1.0390300000000000E+01    5.9988000000000001E+00    0.0000000000000000E+00
Au_lead    1.0390300000000000E+01    1.1140700000000004E+01    0.0000000000000000E+00
Au_lead    1.1874600000000003E+01    3.4279000000000002E+00    0.0000000000000000E+00
Au_lead    1.1874600000000003E+01    8.5696999999999992E+00    0.0000000000000000E+00
Au_lead    1.1874600000000003E+01    1.3711600000000001E+01    0.0000000000000000E+00
Au_lead    1.3358900000000006E+01    8.5700000000000032E-01    0.0000000000000000E+00
Au_lead    1.3358900000000006E+01    5.9988000000000001E+00    0.0000000000000000E+00
Au_lead    1.3358900000000006E+01    1.1140700000000004E+01    0.0000000000000000E+00
Au_lead    1.4843200000000005E+01    3.4279000000000002E+00    0.0000000000000000E+00
Au_lead    1.4843200000000005E+01    8.5696999999999992E+00    0.0000000000000000E+00
Au_lead    1.4843200000000005E+01    1.3711600000000001E+01    0.0000000000000000E+00
Au_lead    1.6327600000000000E+01    8.5700000000000032E-01    0.0000000000000000E+00
Au_lead    1.6327600000000000E+01    5.9988000000000001E+00    0.0000000000000000E+00
Au_lead    1.6327600000000000E+01    1.1140700000000004E+01    0.0000000000000000E+00
Au_lead    0.0000000000000000E+00    1.7140000000000006E+00    2.4239000000000002E+00
Au_lead    0.0000000000000000E+00    6.8558000000000003E+00    2.4239000000000002E+00
Au_lead    0.0000000000000000E+00    1.1997600000000000E+01    2.4239000000000002E+00
Au_lead    1.4843000000000000E+00    4.2849000000000004E+00    2.4239000000000002E+00
Au_lead    1.4843000000000000E+00    9.4267000000000003E+00    2.4239000000000002E+00
Au_lead    1.4843000000000000E+00    1.4568600000000005E+01    2.4239000000000002E+00
Au_lead    2.9685999999999999E+00    1.7140000000000006E+00    2.4239000000000002E+00
Au_lead    2.9685999999999999E+00    6.8558000000000003E+00    2.4239000000000002E+00
Au_lead    2.9685999999999999E+00    1.1997600000000000E+01    2.4239000000000002E+00
Au_lead    4.4530000000000003E+00    4.2849000000000004E+00    2.4239000000000002E+00
Au_lead    4.4530000000000003E+00    9.4267000000000003E+00    2.4239000000000002E+00
Au_lead    4.4530000000000003E+00    1.4568600000000005E+01    2.4239000000000002E+00
Au_lead    5.9373000000000014E+00    1.7140000000000006E+00    2.4239000000000002E+00
Au_lead    5.9373000000000014E+00    6.8558000000000003E+00    2.4239000000000002E+00
Au_lead    5.9373000000000014E+00    1.1997600000000000E+01    2.4239000000000002E+00
Au_lead    7.4216000000000024E+00    4.2849000000000004E+00    2.4239000000000002E+00
Au_lead    7.4216000000000024E+00    9.4267000000000003E+00    2.4239000000000002E+00
Au_lead    7.4216000000000024E+00    1.4568600000000005E+01    2.4239000000000002E+00
Au_lead    8.9059000000000008E+00    1.7140000000000006E+00    2.4239000000000002E+00
Au_lead    8.9059000000000008E+00    6.8558000000000003E+00    2.4239000000000002E+00
Au_lead    8.9059000000000008E+00    1.1997600000000000E+01    2.4239000000000002E+00
Au_lead    1.0390300000000000E+01    4.2849000000000004E+00    2.4239000000000002E+00
Au_lead    1.0390300000000000E+01    9.4267000000000003E+00    2.4239000000000002E+00
Au_lead    1.0390300000000000E+01    1.4568600000000005E+01    2.4239000000000002E+00
Au_lead    1.1874600000000003E+01    1.7140000000000006E+00    2.4239000000000002E+00
Au_lead    1.1874600000000003E+01    6.8558000000000003E+00    2.4239000000000002E+00
Au_lead    1.1874600000000003E+01    1.1997600000000000E+01    2.4239000000000002E+00
Au_lead    1.3358900000000006E+01    4.2849000000000004E+00    2.4239000000000002E+00
Au_lead    1.3358900000000006E+01    9.4267000000000003E+00    2.4239000000000002E+00
Au_lead    1.3358900000000006E+01    1.4568600000000005E+01    2.4239000000000002E+00
Au_lead    1.4843200000000005E+01    1.7140000000000006E+00    2.4239000000000002E+00
Au_lead    1.4843200000000005E+01    6.8558000000000003E+00    2.4239000000000002E+00
Au_lead    1.4843200000000005E+01    1.1997600000000000E+01    2.4239000000000002E+00
Au_lead    1.6327600000000000E+01    4.2849000000000004E+00    2.4239000000000002E+00
Au_lead    1.6327600000000000E+01    9.4267000000000003E+00    2.4239000000000002E+00
Au_lead    1.6327600000000000E+01    1.4568600000000005E+01    2.4239000000000002E+00
Au_lead    0.0000000000000000E+00    0.0000000000000000E+00    4.8478000000000003E+00
Au_lead    0.0000000000000000E+00    5.1418000000000008E+00    4.8478000000000003E+00
Au_lead    0.0000000000000000E+00    1.0283700000000005E+01    4.8478000000000003E+00
Au_lead    1.4843000000000000E+00    2.5709000000000004E+00    4.8478000000000003E+00
Au_lead    1.4843000000000000E+00    7.7128000000000023E+00    4.8478000000000003E+00
Au_lead    1.4843000000000000E+00    1.2854600000000000E+01    4.8478000000000003E+00
Au_lead    2.9685999999999999E+00    0.0000000000000000E+00    4.8478000000000003E+00
Au_lead    2.9685999999999999E+00    5.1418000000000008E+00    4.8478000000000003E+00
Au_lead    2.9685999999999999E+00    1.0283700000000005E+01    4.8478000000000003E+00
Au_lead    4.4530000000000003E+00    2.5709000000000004E+00    4.8478000000000003E+00
Au_lead    4.4530000000000003E+00    7.7128000000000023E+00    4.8478000000000003E+00
Au_lead    4.4530000000000003E+00    1.2854600000000000E+01    4.8478000000000003E+00
Au_lead    5.9373000000000014E+00    0.0000000000000000E+00    4.8478000000000003E+00
Au_lead    5.9373000000000014E+00    5.1418000000000008E+00    4.8478000000000003E+00
Au_lead    5.9373000000000014E+00    1.0283700000000005E+01    4.8478000000000003E+00
Au_lead    7.4216000000000024E+00    2.5709000000000004E+00    4.8478000000000003E+00
Au_lead    7.4216000000000024E+00    7.7128000000000023E+00    4.8478000000000003E+00
Au_lead    7.4216000000000024E+00    1.2854600000000000E+01    4.8478000000000003E+00
Au_lead    8.9059000000000008E+00    0.0000000000000000E+00    4.8478000000000003E+00
Au_lead    8.9059000000000008E+00    5.1418000000000008E+00    4.8478000000000003E+00
Au_lead    8.9059000000000008E+00    1.0283700000000005E+01    4.8478000000000003E+00
Au_lead    1.0390300000000000E+01    2.5709000000000004E+00    4.8478000000000003E+00
Au_lead    1.0390300000000000E+01    7.7128000000000023E+00    4.8478000000000003E+00
Au_lead    1.0390300000000000E+01    1.2854600000000000E+01    4.8478000000000003E+00
Au_lead    1.1874600000000003E+01    0.0000000000000000E+00    4.8478000000000003E+00
Au_lead    1.1874600000000003E+01    5.1418000000000008E+00    4.8478000000000003E+00
Au_lead    1.1874600000000003E+01    1.0283700000000005E+01    4.8478000000000003E+00
Au_lead    1.3358900000000006E+01    2.5709000000000004E+00    4.8478000000000003E+00
Au_lead    1.3358900000000006E+01    7.7128000000000023E+00    4.8478000000000003E+00
Au_lead    1.3358900000000006E+01    1.2854600000000000E+01    4.8478000000000003E+00
Au_lead    1.4843200000000005E+01    0.0000000000000000E+00    4.8478000000000003E+00
Au_lead    1.4843200000000005E+01    5.1418000000000008E+00    4.8478000000000003E+00
Au_lead    1.4843200000000005E+01    1.0283700000000005E+01    4.8478000000000003E+00
Au_lead    1.6327600000000000E+01    2.5709000000000004E+00    4.8478000000000003E+00
Au_lead    1.6327600000000000E+01    7.7128000000000023E+00    4.8478000000000003E+00
Au_lead    1.6327600000000000E+01    1.2854600000000000E+01    4.8478000000000003E+00
Au_lead    0.0000000000000000E+00    3.4279000000000002E+00    7.2717000000000018E+00
Au_lead    0.0000000000000000E+00    8.5696999999999992E+00    7.2717000000000018E+00
Au_lead    0.0000000000000000E+00    1.3711600000000001E+01    7.2717000000000018E+00
Au_lead    1.4843000000000000E+00    8.5700000000000032E-01    7.2717000000000018E+00
Au_lead    1.4843000000000000E+00    5.9988000000000001E+00    7.2717000000000018E+00
Au_lead    1.4843000000000000E+00    1.1140700000000004E+01    7.2717000000000018E+00
Au_lead    2.9685999999999999E+00    3.4279000000000002E+00    7.2717000000000018E+00
Au_lead    2.9685999999999999E+00    8.5696999999999992E+00    7.2717000000000018E+00
Au_lead    2.9685999999999999E+00    1.3711600000000001E+01    7.2717000000000018E+00
Au_lead    4.4530000000000003E+00    8.5700000000000032E-01    7.2717000000000018E+00
Au_lead    4.4530000000000003E+00    5.9988000000000001E+00    7.2717000000000018E+00
Au_lead    4.4530000000000003E+00    1.1140700000000004E+01    7.2717000000000018E+00
Au_lead    5.9373000000000014E+00    3.4279000000000002E+00    7.2717000000000018E+00
Au_lead    5.9373000000000014E+00    8.5696999999999992E+00    7.2717000000000018E+00
Au_lead    5.9373000000000014E+00    1.3711600000000001E+01    7.2717000000000018E+00
Au_lead    7.4216000000000024E+00    8.5700000000000032E-01    7.2717000000000018E+00
Au_lead    7.4216000000000024E+00    5.9988000000000001E+00    7.2717000000000018E+00
Au_lead    7.4216000000000024E+00    1.1140700000000004E+01    7.2717000000000018E+00
Au_lead    8.9059000000000008E+00    3.4279000000000002E+00    7.2717000000000018E+00
Au_lead    8.9059000000000008E+00    8.5696999999999992E+00    7.2717000000000018E+00
Au_lead    8.9059000000000008E+00    1.3711600000000001E+01    7.2717000000000018E+00
Au_lead    1.0390300000000000E+01    8.5700000000000032E-01    7.2717000000000018E+00
Au_lead    1.0390300000000000E+01    5.9988000000000001E+00    7.2717000000000018E+00
Au_lead    1.0390300000000000E+01    1.1140700000000004E+01    7.2717000000000018E+00
Au_lead    1.1874600000000003E+01    3.4279000000000002E+00    7.2717000000000018E+00
Au_lead    1.1874600000000003E+01    8.5696999999999992E+00    7.2717000000000018E+00
Au_lead    1.1874600000000003E+01    1.3711600000000001E+01    7.2717000000000018E+00
Au_lead    1.3358900000000006E+01    8.5700000000000032E-01    7.2717000000000018E+00
Au_lead    1.3358900000000006E+01    5.9988000000000001E+00    7.2717000000000018E+00
Au_lead    1.3358900000000006E+01    1.1140700000000004E+01    7.2717000000000018E+00
Au_lead    1.4843200000000005E+01    3.4279000000000002E+00    7.2717000000000018E+00
Au_lead    1.4843200000000005E+01    8.5696999999999992E+00    7.2717000000000018E+00
Au_lead    1.4843200000000005E+01    1.3711600000000001E+01    7.2717000000000018E+00
Au_lead    1.6327600000000000E+01    8.5700000000000032E-01    7.2717000000000018E+00
Au_lead    1.6327600000000000E+01    5.9988000000000001E+00    7.2717000000000018E+00
Au_lead    1.6327600000000000E+01    1.1140700000000004E+01    7.2717000000000018E+00
Au_lead    0.0000000000000000E+00    1.7140000000000006E+00    9.6956000000000007E+00
Au_lead    0.0000000000000000E+00    6.8558000000000003E+00    9.6956000000000007E+00
Au_lead    0.0000000000000000E+00    1.1997600000000000E+01    9.6956000000000007E+00
Au_lead    1.4843000000000000E+00    4.2849000000000004E+00    9.6956000000000007E+00
Au_lead    1.4843000000000000E+00    9.4267000000000003E+00    9.6956000000000007E+00
Au_lead    1.4843000000000000E+00    1.4568600000000005E+01    9.6956000000000007E+00
Au_lead    2.9685999999999999E+00    1.7140000000000006E+00    9.6956000000000007E+00
Au_lead    2.9685999999999999E+00    6.8558000000000003E+00    9.6956000000000007E+00
Au_lead    2.9685999999999999E+00    1.1997600000000000E+01    9.6956000000000007E+00
Au_lead    4.4530000000000003E+00    4.2849000000000004E+00    9.6956000000000007E+00
Au_lead    4.4530000000000003E+00    9.4267000000000003E+00    9.6956000000000007E+00
Au_lead    4.4530000000000003E+00    1.4568600000000005E+01    9.6956000000000007E+00
Au_lead    5.9373000000000014E+00    1.7140000000000006E+00    9.6956000000000007E+00
Au_lead    5.9373000000000014E+00    6.8558000000000003E+00    9.6956000000000007E+00
Au_lead    5.9373000000000014E+00    1.1997600000000000E+01    9.6956000000000007E+00
Au_lead    7.4216000000000024E+00    4.2849000000000004E+00    9.6956000000000007E+00
Au_lead    7.4216000000000024E+00    9.4267000000000003E+00    9.6956000000000007E+00
Au_lead    7.4216000000000024E+00    1.4568600000000005E+01    9.6956000000000007E+00
Au_lead    8.9059000000000008E+00    1.7140000000000006E+00    9.6956000000000007E+00
Au_lead    8.9059000000000008E+00    6.8558000000000003E+00    9.6956000000000007E+00
Au_lead    8.9059000000000008E+00    1.1997600000000000E+01    9.6956000000000007E+00
Au_lead    1.0390300000000000E+01    4.2849000000000004E+00    9.6956000000000007E+00
Au_lead    1.0390300000000000E+01    9.4267000000000003E+00    9.6956000000000007E+00
Au_lead    1.0390300000000000E+01    1.4568600000000005E+01    9.6956000000000007E+00
Au_lead    1.1874600000000003E+01    1.7140000000000006E+00    9.6956000000000007E+00
Au_lead    1.1874600000000003E+01    6.8558000000000003E+00    9.6956000000000007E+00
Au_lead    1.1874600000000003E+01    1.1997600000000000E+01    9.6956000000000007E+00
Au_lead    1.3358900000000006E+01    4.2849000000000004E+00    9.6956000000000007E+00
Au_lead    1.3358900000000006E+01    9.4267000000000003E+00    9.6956000000000007E+00
Au_lead    1.3358900000000006E+01    1.4568600000000005E+01    9.6956000000000007E+00
Au_lead    1.4843200000000005E+01    1.7140000000000006E+00    9.6956000000000007E+00
Au_lead    1.4843200000000005E+01    6.8558000000000003E+00    9.6956000000000007E+00
Au_lead    1.4843200000000005E+01    1.1997600000000000E+01    9.6956000000000007E+00
Au_lead    1.6327600000000000E+01    4.2849000000000004E+00    9.6956000000000007E+00
Au_lead    1.6327600000000000E+01    9.4267000000000003E+00    9.6956000000000007E+00
Au_lead    1.6327600000000000E+01    1.4568600000000005E+01    9.6956000000000007E+00
Au_lead    0.0000000000000000E+00    0.0000000000000000E+00    1.2119400000000001E+01
Au_lead    0.0000000000000000E+00    5.1418000000000008E+00    1.2119400000000001E+01
Au_lead    0.0000000000000000E+00    1.0283700000000005E+01    1.2119400000000001E+01
Au_lead    1.4843000000000000E+00    2.5709000000000004E+00    1.2119400000000001E+01
Au_lead    1.4843000000000000E+00    7.7128000000000023E+00    1.2119400000000001E+01
Au_lead    1.4843000000000000E+00    1.2854600000000000E+01    1.2119400000000001E+01
Au_lead    2.9685999999999999E+00    0.0000000000000000E+00    1.2119400000000001E+01
Au_lead    2.9685999999999999E+00    5.1418000000000008E+00    1.2119400000000001E+01
Au_lead    2.9685999999999999E+00    1.0283700000000005E+01    1.2119400000000001E+01
Au_lead    4.4530000000000003E+00    2.5709000000000004E+00    1.2119400000000001E+01
Au_lead    4.4530000000000003E+00    7.7128000000000023E+00    1.2119400000000001E+01
Au_lead    4.4530000000000003E+00    1.2854600000000000E+01    1.2119400000000001E+01
Au_lead    5.9373000000000014E+00    0.0000000000000000E+00    1.2119400000000001E+01
Au_lead    5.9373000000000014E+00    5.1418000000000008E+00    1.2119400000000001E+01
Au_lead    5.9373000000000014E+00    1.0283700000000005E+01    1.2119400000000001E+01
Au_lead    7.4216000000000024E+00    2.5709000000000004E+00    1.2119400000000001E+01
Au_lead    7.4216000000000024E+00    7.7128000000000023E+00    1.2119400000000001E+01
Au_lead    7.4216000000000024E+00    1.2854600000000000E+01    1.2119400000000001E+01
Au_lead    8.9059000000000008E+00    0.0000000000000000E+00    1.2119400000000001E+01
Au_lead    8.9059000000000008E+00    5.1418000000000008E+00    1.2119400000000001E+01
Au_lead    8.9059000000000008E+00    1.0283700000000005E+01    1.2119400000000001E+01
Au_lead    1.0390300000000000E+01    2.5709000000000004E+00    1.2119400000000001E+01
Au_lead    1.0390300000000000E+01    7.7128000000000023E+00    1.2119400000000001E+01
Au_lead    1.0390300000000000E+01    1.2854600000000000E+01    1.2119400000000001E+01
Au_lead    1.1874600000000003E+01    0.0000000000000000E+00    1.2119400000000001E+01
Au_lead    1.1874600000000003E+01    5.1418000000000008E+00    1.2119400000000001E+01
Au_lead    1.1874600000000003E+01    1.0283700000000005E+01    1.2119400000000001E+01
Au_lead    1.3358900000000006E+01    2.5709000000000004E+00    1.2119400000000001E+01
Au_lead    1.3358900000000006E+01    7.7128000000000023E+00    1.2119400000000001E+01
Au_lead    1.3358900000000006E+01    1.2854600000000000E+01    1.2119400000000001E+01
Au_lead    1.4843200000000005E+01    0.0000000000000000E+00    1.2119400000000001E+01
Au_lead    1.4843200000000005E+01    5.1418000000000008E+00    1.2119400000000001E+01
Au_lead    1.4843200000000005E+01    1.0283700000000005E+01    1.2119400000000001E+01
Au_lead    1.6327600000000000E+01    2.5709000000000004E+00    1.2119400000000001E+01
Au_lead    1.6327600000000000E+01    7.7128000000000023E+00    1.2119400000000001E+01
Au_lead    1.6327600000000000E+01    1.2854600000000000E+01    1.2119400000000001E+01
Au_screen    0.0000000000000000E+00    3.4279000000000002E+00    1.4543300000000000E+01
Au_screen    0.0000000000000000E+00    8.5696999999999992E+00    1.4543300000000000E+01
Au_screen    0.0000000000000000E+00    1.3711600000000001E+01    1.4543300000000000E+01
Au_screen    1.4843000000000000E+00    8.5700000000000032E-01    1.4543300000000000E+01
Au_screen    1.4843000000000000E+00    5.9988000000000001E+00    1.4543300000000000E+01
Au_screen    1.4843000000000000E+00    1.1140700000000004E+01    1.4543300000000000E+01
Au_screen    2.9685999999999999E+00    3.4279000000000002E+00    1.4543300000000000E+01
Au_screen    2.9685999999999999E+00    8.5696999999999992E+00    1.4543300000000000E+01
Au_screen    2.9685999999999999E+00    1.3711600000000001E+01    1.4543300000000000E+01
Au_screen    4.4530000000000003E+00    8.5700000000000032E-01    1.4543300000000000E+01
Au_screen    4.4530000000000003E+00    5.9988000000000001E+00    1.4543300000000000E+01
Au_screen    4.4530000000000003E+00    1.1140700000000004E+01    1.4543300000000000E+01
Au_screen    5.9373000000000014E+00    3.4279000000000002E+00    1.4543300000000000E+01
Au_screen    5.9373000000000014E+00    8.5696999999999992E+00    1.4543300000000000E+01
Au_screen    5.9373000000000014E+00    1.3711600000000001E+01    1.4543300000000000E+01
Au_screen    7.4216000000000024E+00    8.5700000000000032E-01    1.4543300000000000E+01
Au_screen    7.4216000000000024E+00    5.9988000000000001E+00    1.4543300000000000E+01
Au_screen    7.4216000000000024E+00    1.1140700000000004E+01    1.4543300000000000E+01
Au_screen    8.9059000000000008E+00    3.4279000000000002E+00    1.4543300000000000E+01
Au_screen    8.9059000000000008E+00    8.5696999999999992E+00    1.4543300000000000E+01
Au_screen    8.9059000000000008E+00    1.3711600000000001E+01    1.4543300000000000E+01
Au_screen    1.0390300000000000E+01    8.5700000000000032E-01    1.4543300000000000E+01
Au_screen    1.0390300000000000E+01    5.9988000000000001E+00    1.4543300000000000E+01
Au_screen    1.0390300000000000E+01    1.1140700000000004E+01    1.4543300000000000E+01
Au_screen    1.1874600000000003E+01    3.4279000000000002E+00    1.4543300000000000E+01
Au_screen    1.1874600000000003E+01    8.5696999999999992E+00    1.4543300000000000E+01
Au_screen    1.1874600000000003E+01    1.3711600000000001E+01    1.4543300000000000E+01
Au_screen    1.3358900000000006E+01    8.5700000000000032E-01    1.4543300000000000E+01
Au_screen    1.3358900000000006E+01    5.9988000000000001E+00    1.4543300000000000E+01
Au_screen    1.3358900000000006E+01    1.1140700000000004E+01    1.4543300000000000E+01
Au_screen    1.4843200000000005E+01    3.4279000000000002E+00    1.4543300000000000E+01
Au_screen    1.4843200000000005E+01    8.5696999999999992E+00    1.4543300000000000E+01
Au_screen    1.4843200000000005E+01    1.3711600000000001E+01    1.4543300000000000E+01
Au_screen    1.6327600000000000E+01    8.5700000000000032E-01    1.4543300000000000E+01
Au_screen    1.6327600000000000E+01    5.9988000000000001E+00    1.4543300000000000E+01
Au_screen    1.6327600000000000E+01    1.1140700000000004E+01    1.4543300000000000E+01
Au_screen    0.0000000000000000E+00    1.7140000000000006E+00    1.6967199999999998E+01
Au_screen    0.0000000000000000E+00    6.8558000000000003E+00    1.6967199999999998E+01
Au_screen    0.0000000000000000E+00    1.1997600000000000E+01    1.6967199999999998E+01
Au_screen    1.4843000000000000E+00    4.2849000000000004E+00    1.6967199999999998E+01
Au_screen    1.4843000000000000E+00    9.4267000000000003E+00    1.6967199999999998E+01
Au_screen    1.4843000000000000E+00    1.4568600000000005E+01    1.6967199999999998E+01
Au_screen    2.9685999999999999E+00    1.7140000000000006E+00    1.6967199999999998E+01
Au_screen    2.9685999999999999E+00    6.8558000000000003E+00    1.6967199999999998E+01
Au_screen    2.9685999999999999E+00    1.1997600000000000E+01    1.6967199999999998E+01
Au_screen    4.4530000000000003E+00    4.2849000000000004E+00    1.6967199999999998E+01
Au_screen    4.4530000000000003E+00    9.4267000000000003E+00    1.6967199999999998E+01
Au_screen    4.4530000000000003E+00    1.4568600000000005E+01    1.6967199999999998E+01
Au_screen    5.9373000000000014E+00    1.7140000000000006E+00    1.6967199999999998E+01
Au_screen    5.9373000000000014E+00    6.8558000000000003E+00    1.6967199999999998E+01
Au_screen    5.9373000000000014E+00    1.1997600000000000E+01    1.6967199999999998E+01
Au_screen    7.4216000000000024E+00    4.2849000000000004E+00    1.6967199999999998E+01
Au_screen    7.4216000000000024E+00    9.4267000000000003E+00    1.6967199999999998E+01
Au_screen    7.4216000000000024E+00    1.4568600000000005E+01    1.6967199999999998E+01
Au_screen    8.9059000000000008E+00    1.7140000000000006E+00    1.6967199999999998E+01
Au_screen    8.9059000000000008E+00    6.8558000000000003E+00    1.6967199999999998E+01
Au_screen    8.9059000000000008E+00    1.1997600000000000E+01    1.6967199999999998E+01
Au_screen    1.0390300000000000E+01    4.2849000000000004E+00    1.6967199999999998E+01
Au_screen    1.0390300000000000E+01    9.4267000000000003E+00    1.6967199999999998E+01
Au_screen    1.0390300000000000E+01    1.4568600000000005E+01    1.6967199999999998E+01
Au_screen    1.1874600000000003E+01    1.7140000000000006E+00    1.6967199999999998E+01
Au_screen    1.1874600000000003E+01    6.8558000000000003E+00    1.6967199999999998E+01
Au_screen    1.1874600000000003E+01    1.1997600000000000E+01    1.6967199999999998E+01
Au_screen    1.3358900000000006E+01    4.2849000000000004E+00    1.6967199999999998E+01
Au_screen    1.3358900000000006E+01    9.4267000000000003E+00    1.6967199999999998E+01