     116
 i =        1, E =     -3518.3381067693
 Au         0.0000000000        0.0000000000        0.0000000000
 Au         0.0000000000        4.1460000000        0.0000000000
 Au         2.0730000000        2.0730000000        0.0000000000
 Au         2.0730000000        6.2190000000        0.0000000000
 Au         4.1460000000        0.0000000000        0.0000000000
 Au         4.1460000000        4.1460000000        0.0000000000
 Au         6.2190000000        2.0730000000        0.0000000000
 Au         6.2190000000        6.2190000000        0.0000000000
 Au         0.0000000000        2.0730000000        2.0730000000
 Au         0.0000000000        6.2190000000        2.0730000000
 Au         2.0730000000        0.0000000000        2.0730000000
 Au         2.0730000000        4.1460000000        2.0730000000
 Au         4.1460000000        2.0730000000        2.0730000000
 Au         4.1460000000        6.2190000000        2.0730000000
 Au         6.2190000000        0.0000000000        2.0730000000
 Au         6.2190000000        4.1460000000        2.0730000000
 Au         0.0000000000        0.0000000000        4.1460000000
 Au         0.0000000000        4.1460000000        4.1460000000
 Au         2.0730000000        2.0730000000        4.1460000000
 Au         2.0730000000        6.2190000000        4.1460000000
 Au         4.1460000000        0.0000000000        4.1460000000
 Au         4.1460000000        4.1460000000        4.1460000000
 Au         6.2190000000        2.0730000000        4.1460000000
 Au         6.2190000000        6.2190000000        4.1460000000
 Au         0.0000000000        2.0730000000        6.2190000000
 Au         0.0000000000        6.2190000000        6.2190000000
 Au         2.0730000000        0.0000000000        6.2190000000
 Au         2.0730000000        4.1460000000        6.2190000000
 Au         4.1460000000        2.0730000000        6.2190000000
 Au         4.1460000000        6.2190000000        6.2190000000
 Au         6.2190000000        0.0000000000        6.2190000000
 Au         6.2190000000        4.1460000000        6.2190000000
 Au         0.0000000000        0.0000000000        8.2920000000
 Au         0.0000000000        4.1460000000        8.2920000000
 Au         2.0730000000        2.0730000000        8.2920000000
 Au         2.0730000000        6.2190000000        8.2920000000
 Au         4.1460000000        0.0000000000        8.2920000000
 Au         4.1460000000        4.1460000000        8.2920000000
 Au         6.2190000000        2.0730000000        8.2920000000
 Au         6.2190000000        6.2190000000        8.2920000000
 Au        -0.0000415738        2.0729840261       10.3805479093
 Au        -0.0000146103        6.2189486602       10.3593176956
 Au         2.0709646671       -0.0009405502       10.3541833075
 Au         2.0709790750        4.1470530488       10.3541257094
 Au         4.1459865828        2.0728969924       10.3013042348
 Au         4.1459906771        6.2187896559       10.3789787621
 Au         6.2210450081       -0.0009397302       10.3541538004
 Au         6.2210313292        4.1470525756       10.3540946803
 Au         0.0000300307       -0.0076869816       12.4402181395
 Au         0.0000309827        4.1537955767       12.4403134713
 Au         1.9809767841        2.0730629271       12.4487051998
 Au         2.0643591072        6.2189358496       12.4396285637
 Au         4.1459857761       -0.0957487049       12.4397758894
 Au         4.1459876592        4.2415196081       12.4398843099
 Au         6.3109148426        2.0730652539       12.4487785931
 Au         6.2276455580        6.2189369183       12.4396339601
  S         4.1462475882        2.0753714722       13.9533859171
  C         4.1443704907        2.0884575164       15.7191365254
  H         2.0003961268        2.0982872533       15.8485673150
  H         6.2884821614        2.0981565407       15.8579425876
  C         2.9245165848        2.0758399765       16.3966148343
  C         5.3594800678        2.0759784884       16.3981247121
  C         2.9227062143        2.0681220607       17.7940056375
  C         5.3566229014        2.0681941230       17.7951146420
  H         1.9924727827        2.0458910337       18.3347528142
  H         6.2812457575        2.0457390599       18.3444179498
  C         4.1375889772        2.0560518884       18.4732510822
  S         4.1422979312        2.0703579523       20.2401025120
 Au         0.0003089238       -0.0064147123       21.7531549528
 Au         0.0003011432        4.1523058229       21.7532558455
 Au         1.9792405998        2.0729712985       21.7449621542
 Au         2.0654166413        6.2190302563       21.7538260334
 Au         4.1463952641       -0.0977263178       21.7541002465
 Au         4.1464052619        4.2440504973       21.7542673779
 Au         6.3129445678        2.0729761468       21.7453577042
 Au         6.2190000000        6.2190000000       21.7550000000
 Au         0.0000000000        2.0730000000       23.8280000000
 Au         0.0000000000        6.2190000000       23.8280000000
 Au         2.0730000000        0.0000000000       23.8280000000
 Au         2.0730000000        4.1460000000       23.8280000000
 Au         4.1460000000        2.0730000000       23.8280000000
 Au         4.1460000000        6.2190000000       23.8280000000
 Au         6.2190000000        0.0000000000       23.8280000000
 Au         6.2190000000        4.1460000000       23.8280000000
 Au         0.0000000000        0.0000000000       25.9010000000
 Au         0.0000000000        4.1460000000       25.9010000000
 Au         2.0730000000        2.0730000000       25.9010000000
 Au         2.0730000000        6.2190000000       25.9010000000
 Au         4.1460000000        0.0000000000       25.9010000000
 Au         4.1460000000        4.1460000000       25.9010000000
 Au         6.2190000000        2.0730000000       25.9010000000
 Au         6.2190000000        6.2190000000       25.9010000000
 Au         0.0000000000        2.0730000000       27.9740000000
 Au         0.0000000000        6.2190000000       27.9740000000
 Au         2.0730000000        0.0000000000       27.9740000000
 Au         2.0730000000        4.1460000000       27.9740000000
 Au         4.1460000000        2.0730000000       27.9740000000
 Au         4.1460000000        6.2190000000       27.9740000000
 Au         6.2190000000        0.0000000000       27.9740000000
 Au         6.2190000000        4.1460000000       27.9740000000
 Au         0.0000000000        0.0000000000       30.0470000000
 Au         0.0000000000        4.1460000000       30.0470000000
 Au         2.0730000000        2.0730000000       30.0470000000
 Au         2.0730000000        6.2190000000       30.0470000000
 Au         4.1460000000        0.0000000000       30.0470000000
 Au         4.1460000000        4.1460000000       30.0470000000
 Au         6.2190000000        2.0730000000       30.0470000000
 Au         6.2190000000        6.2190000000       30.0470000000
 Au         0.0000000000        2.0730000000       32.1200000000
 Au         0.0000000000        6.2190000000       32.1200000000
 Au         2.0730000000        0.0000000000       32.1200000000
 Au         2.0730000000        4.1460000000       32.1200000000
 Au         4.1460000000        2.0730000000       32.1200000000
 Au         4.1460000000        6.2190000000       32.1200000000
 Au         6.2190000000        0.0000000000       32.1200000000
 Au         6.2190000000        4.1460000000       32.1200000000
     116
 i =        2, E =     -3518.3413365884
 Au         0.0000000000        0.0000000000        0.0000000000
 Au         0.0000000000        4.1460000000        0.0000000000
 Au         2.0730000000        2.0730000000        0.0000000000
 Au         2.0730000000        6.2190000000        0.0000000000
 Au         4.1460000000        0.0000000000        0.0000000000
 Au         4.1460000000        4.1460000000        0.0000000000
 Au         6.2190000000        2.0730000000        0.0000000000
 Au         6.2190000000        6.2190000000        0.0000000000
 Au         0.0000000000        2.0730000000        2.0730000000
 Au         0.0000000000        6.2190000000        2.0730000000
 Au         2.0730000000        0.0000000000        2.0730000000
 Au         2.0730000000        4.1460000000        2.0730000000
 Au         4.1460000000        2.0730000000        2.0730000000
 Au         4.1460000000        6.2190000000        2.0730000000
 Au         6.2190000000        0.0000000000        2.0730000000
 Au         6.2190000000        4.1460000000        2.0730000000
 Au         0.0000000000        0.0000000000        4.1460000000
 Au         0.0000000000        4.1460000000        4.1460000000
 Au         2.0730000000        2.0730000000        4.1460000000
 Au         2.0730000000        6.2190000000        4.1460000000
 Au         4.1460000000        0.0000000000        4.1460000000
 Au         4.1460000000        4.1460000000        4.1460000000
 Au         6.2190000000        2.0730000000        4.1460000000
 Au         6.2190000000        6.2190000000        4.1460000000
 Au         0.0000000000        2.0730000000        6.2190000000
 Au         0.0000000000        6.2190000000        6.2190000000
 Au         2.0730000000        0.0000000000        6.2190000000
 Au         2.0730000000        4.1460000000        6.2190000000
 Au         4.1460000000        2.0730000000        6.2190000000
 Au         4.1460000000        6.2190000000        6.2190000000
 Au         6.2190000000        0.0000000000        6.2190000000
 Au         6.2190000000        4.1460000000        6.2190000000
 Au         0.0000000000        0.0000000000        8.2920000000
 Au         0.0000000000        4.1460000000        8.2920000000
 Au         2.0730000000        2.0730000000        8.2920000000
 Au         2.0730000000        6.2190000000        8.2920000000
 Au         4.1460000000        0.0000000000        8.2920000000
 Au         4.1460000000        4.1460000000        8.2920000000
 Au         6.2190000000        2.0730000000        8.2920000000
 Au         6.2190000000        6.2190000000        8.2920000000
 Au        -0.0000063675        2.0730267274       10.3685972329
 Au        -0.0000092096        6.2189529823       10.3595004711
 Au         2.0761884022        0.0060906347       10.3580317437
 Au         2.0762293406        4.1400439576       10.3578605549
 Au         4.1460202363        2.0727575599       10.3297206291
 Au         4.1459854955        6.2183113029       10.3615115300
 Au         6.2158063433        0.0060945651       10.3580522985
 Au         6.2157676183        4.1400415942       10.3578785730
 Au         0.0000388787       -0.0347814702       12.4468025443
 Au         0.0000413007        4.1810137568       12.4469794593
 Au         1.9675992363        2.0728349565       12.4599697915
 Au         2.0348808982        6.2190198173       12.4457967277
 Au         4.1459788273       -0.1108149355       12.4434979811
 Au         4.1459798524        4.2568770223       12.4438008802
 Au         6.3242953760        2.0728362558       12.4600546929
 Au         6.2571066650        6.2190221671       12.4457782308
  S         4.1459126197        2.0800855643       13.9463296172
  C         4.1441007881        2.0781899433       15.7103028088
  H         1.9983095934        2.0918324839       15.8439834297
  H         6.2893100590        2.0917439316       15.8520476876
  C         2.9352518716        2.0894335908       16.4027063753
  C         5.3498634706        2.0892611958       16.4068433058
  C         2.9320384711        2.0551306513       17.7848544704
  C         5.3468799664        2.0550062876       17.7887029812
  H         1.9921062279        2.0523204732       18.3403728394
  H         6.2838472732        2.0521784311       18.3486169567
  C         4.1380755015        2.0662830923       18.4807145939
  S         4.1404437415        2.0655006658       20.2448163236
 Au        -0.0006426148       -0.0318798387       21.7452971765
 Au        -0.0006482395        4.1775949426       21.7454812173
 Au         1.9596376320        2.0732923358       21.7273402906
 Au         2.0378325946        6.2189498779       21.7456302320
 Au         4.1454934440       -0.1178541401       21.7429425931
 Au         4.1454976266        4.2636676794       21.7432753879
 Au         6.3324069590        2.0732931140       21.7279979903
 Au         6.2190000000        6.2190000000       21.7550000000
 Au         0.0000000000        2.0730000000       23.8280000000
 Au         0.0000000000        6.2190000000       23.8280000000
 Au         2.0730000000        0.0000000000       23.8280000000
 Au         2.0730000000        4.1460000000       23.8280000000
 Au         4.1460000000        2.0730000000       23.8280000000
 Au         4.1460000000        6.2190000000       23.8280000000
 Au         6.2190000000        0.0000000000       23.8280000000
 Au         6.2190000000        4.1460000000       23.8280000000
 Au         0.0000000000        0.0000000000       25.9010000000
 Au         0.0000000000        4.1460000000       25.9010000000
 Au         2.0730000000        2.0730000000       25.9010000000
 Au         2.0730000000        6.2190000000       25.9010000000
 Au         4.1460000000        0.0000000000       25.9010000000
 Au         4.1460000000        4.1460000000       25.9010000000
 Au         6.2190000000        2.0730000000       25.9010000000
 Au         6.2190000000        6.2190000000       25.9010000000
 Au         0.0000000000        2.0730000000       27.9740000000
 Au         0.0000000000        6.2190000000       27.9740000000
 Au         2.0730000000        0.0000000000       27.9740000000
 Au         2.0730000000        4.1460000000       27.9740000000
 Au         4.1460000000        2.0730000000       27.9740000000
 Au         4.1460000000        6.2190000000       27.9740000000
 Au         6.2190000000        0.0000000000       27.9740000000
 Au         6.2190000000        4.1460000000       27.9740000000
 Au         0.0000000000        0.0000000000       30.0470000000
 Au         0.0000000000        4.1460000000       30.0470000000
 Au         2.0730000000        2.0730000000       30.0470000000
 Au         2.0730000000        6.2190000000       30.0470000000
 Au         4.1460000000        0.0000000000       30.0470000000
 Au         4.1460000000        4.1460000000       30.0470000000
 Au         6.2190000000        2.0730000000       30.0470000000
 Au         6.2190000000        6.2190000000       30.0470000000
 Au         0.0000000000        2.0730000000       32.1200000000
 Au         0.0000000000        6.2190000000       32.1200000000
 Au         2.0730000000        0.0000000000       32.1200000000
 Au         2.0730000000        4.1460000000       32.1200000000
 Au         4.1460000000        2.0730000000       32.1200000000
 Au         4.1460000000        6.2190000000       32.1200000000
 Au         6.2190000000        0.0000000000       32.1200000000
 Au         6.2190000000        4.1460000000       32.1200000000
     116
 i =        3, E =     -3518.3417478957
 Au         0.0000000000        0.0000000000        0.0000000000
 Au         0.0000000000        4.1460000000        0.0000000000
 Au         2.0730000000        2.0730000000        0.0000000000
 Au         2.0730000000        6.2190000000        0.0000000000
 Au         4.1460000000        0.0000000000        0.0000000000
 Au         4.1460000000        4.1460000000        0.0000000000
 Au         6.2190000000        2.0730000000        0.0000000000
 Au         6.2190000000        6.2190000000        0.0000000000
 Au         0.0000000000        2.0730000000        2.0730000000
 Au         0.0000000000        6.2190000000        2.0730000000
 Au         2.0730000000        0.0000000000        2.0730000000
 Au         2.0730000000        4.1460000000        2.0730000000
 Au         4.1460000000        2.0730000000        2.0730000000
 Au         4.1460000000        6.2190000000        2.0730000000
 Au         6.2190000000        0.0000000000        2.0730000000
 Au         6.2190000000        4.1460000000        2.0730000000
 Au         0.0000000000        0.0000000000        4.1460000000
 Au         0.0000000000        4.1460000000        4.1460000000
 Au         2.0730000000        2.0730000000        4.1460000000
 Au         2.0730000000        6.2190000000        4.1460000000
 Au         4.1460000000        0.0000000000        4.1460000000
 Au         4.1460000000        4.1460000000        4.1460000000
 Au         6.2190000000        2.0730000000        4.1460000000
 Au         6.2190000000        6.2190000000        4.1460000000
 Au         0.0000000000        2.0730000000        6.2190000000
 Au         0.0000000000        6.2190000000        6.2190000000
 Au         2.0730000000        0.0000000000        6.2190000000
 Au         2.0730000000        4.1460000000        6.2190000000
 Au         4.1460000000        2.0730000000        6.2190000000
 Au         4.1460000000        6.2190000000        6.2190000000
 Au         6.2190000000        0.0000000000        6.2190000000
 Au         6.2190000000        4.1460000000        6.2190000000
 Au         0.0000000000        0.0000000000        8.2920000000
 Au         0.0000000000        4.1460000000        8.2920000000
 Au         2.0730000000        2.0730000000        8.2920000000
 Au         2.0730000000        6.2190000000        8.2920000000
 Au         4.1460000000        0.0000000000        8.2920000000
 Au         4.1460000000        4.1460000000        8.2920000000
 Au         6.2190000000        2.0730000000        8.2920000000
 Au         6.2190000000        6.2190000000        8.2920000000
 Au        -0.0000087762        2.0731504804       10.3692558322
 Au        -0.0000099430        6.2189564802       10.3446379983
 Au         2.0809440009        0.0125516005       10.3652682953
 Au         2.0808261821        4.1332423375       10.3651106337
 Au         4.1460117487        2.0727982127       10.3580881769
 Au         4.1459670254        6.2183396251       10.3565485973
 Au         6.2111100455        0.0125584237       10.3653372505
 Au         6.2112301174        4.1332380725       10.3651795907
 Au         0.0000362768       -0.0464463919       12.4537182670
 Au         0.0000372690        4.1926866129       12.4538120534
 Au         1.9554983046        2.0723864081       12.4721673071
 Au         2.0207672556        6.2193087692       12.4514186237
 Au         4.1459783352       -0.1246410996       12.4471772358
 Au         4.1459802880        4.2716671212       12.4480080131
 Au         6.3364946995        2.0723888399       12.4721836579
 Au         6.2711878293        6.2193098711       12.4514319474
  S         4.1458481048        2.0819333803       13.9431706668
  C         4.1435137802        2.0970114150       15.7060067088
  H         1.9961709696        2.0899046097       15.8426610348
  H         6.2906680317        2.0897811515       15.8503644866
  C         2.9378405165        2.0692930405       16.4048324795
  C         5.3472884670        2.0691338725       16.4097411397
  C         2.9345192957        2.0753677800       17.7818054678
  C         5.3447528061        2.0751605371       17.7866039211
  H         1.9912401502        2.0543256883       18.3417190220
  H         6.2862577367        2.0541784373       18.3493725709
  C         4.1386635186        2.0479179991       18.4843291818
  S         4.1389927198        2.0633999080       20.2459172073
 Au        -0.0044083847       -0.0496731123       21.7365473044
 Au        -0.0044147678        4.1953444207       21.7366731988
 Au         1.9477620227        2.0737989259       21.7124471108
 Au         2.0189824031        6.2186471870       21.7351801019
 Au         4.1404641905       -0.1253302423       21.7322521779
 Au         4.1404685800        4.2699203483       21.7329589056
 Au         6.3436483848        2.0737930051       21.7131264195
 Au         6.2190000000        6.2190000000       21.7550000000
 Au         0.0000000000        2.0730000000       23.8280000000
 Au         0.0000000000        6.2190000000       23.8280000000
 Au         2.0730000000        0.0000000000       23.8280000000
 Au         2.0730000000        4.1460000000       23.8280000000
 Au         4.1460000000        2.0730000000       23.8280000000
 Au         4.1460000000        6.2190000000       23.8280000000
 Au         6.2190000000        0.0000000000       23.8280000000
 Au         6.2190000000        4.1460000000       23.8280000000
 Au         0.0000000000        0.0000000000       25.9010000000
 Au         0.0000000000        4.1460000000       25.9010000000
 Au         2.0730000000        2.0730000000       25.9010000000
 Au         2.0730000000        6.2190000000       25.9010000000
 Au         4.1460000000        0.0000000000       25.9010000000
 Au         4.1460000000        4.1460000000       25.9010000000
 Au         6.2190000000        2.0730000000       25.9010000000
 Au         6.2190000000        6.2190000000       25.9010000000
 Au         0.0000000000        2.0730000000       27.9740000000
 Au         0.0000000000        6.2190000000       27.9740000000
 Au         2.0730000000        0.0000000000       27.9740000000
 Au         2.0730000000        4.1460000000       27.9740000000
 Au         4.1460000000        2.0730000000       27.9740000000
 Au         4.1460000000        6.2190000000       27.9740000000
 Au         6.2190000000        0.0000000000       27.9740000000
 Au         6.2190000000        4.1460000000       27.9740000000
 Au         0.0000000000        0.0000000000       30.0470000000
 Au         0.0000000000        4.1460000000       30.0470000000
 Au         2.0730000000        2.0730000000       30.0470000000
 Au         2.0730000000        6.2190000000       30.0470000000
 Au         4.1460000000        0.0000000000       30.0470000000
 Au         4.1460000000        4.1460000000       30.0470000000
 Au         6.2190000000        2.0730000000       30.0470000000
 Au         6.2190000000        6.2190000000       30.0470000000
 Au         0.0000000000        2.0730000000       32.1200000000
 Au         0.0000000000        6.2190000000       32.1200000000
 Au         2.0730000000        0.0000000000       32.1200000000
 Au         2.0730000000        4.1460000000       32.1200000000
 Au         4.1460000000        2.0730000000       32.1200000000
 Au         4.1460000000        6.2190000000       32.1200000000
 Au         6.2190000000        0.0000000000       32.1200000000
 Au         6.2190000000        4.1460000000       32.1200000000
     116
 i =        4, E =     -3518.3423838018
 Au         0.0000000000        0.0000000000        0.0000000000
 Au         0.0000000000        4.1460000000        0.0000000000
 Au         2.0730000000        2.0730000000        0.0000000000
 Au         2.0730000000        6.2190000000        0.0000000000
 Au         4.1460000000        0.0000000000        0.0000000000
 Au         4.1460000000        4.1460000000        0.0000000000
 Au         6.2190000000        2.0730000000        0.0000000000
 Au         6.2190000000        6.2190000000        0.0000000000
 Au         0.0000000000        2.0730000000        2.0730000000
 Au         0.0000000000        6.2190000000        2.0730000000
 Au         2.0730000000        0.0000000000        2.0730000000
 Au         2.0730000000        4.1460000000        2.0730000000
 Au         4.1460000000        2.0730000000        2.0730000000
 Au         4.1460000000        6.2190000000        2.0730000000
 Au         6.2190000000        0.0000000000        2.0730000000
 Au         6.2190000000        4.1460000000        2.0730000000
 Au         0.0000000000        0.0000000000        4.1460000000
 Au         0.0000000000        4.1460000000        4.1460000000
 Au         2.0730000000        2.0730000000        4.1460000000
 Au         2.0730000000        6.2190000000        4.1460000000
 Au         4.1460000000        0.0000000000        4.1460000000
 Au         4.1460000000        4.1460000000        4.1460000000
 Au         6.2190000000        2.0730000000        4.1460000000
 Au         6.2190000000        6.2190000000        4.1460000000
 Au         0.0000000000        2.0730000000        6.2190000000
 Au         0.0000000000        6.2190000000        6.2190000000
 Au         2.0730000000        0.0000000000        6.2190000000
 Au         2.0730000000        4.1460000000        6.2190000000
 Au         4.1460000000        2.0730000000        6.2190000000
 Au         4.1460000000        6.2190000000        6.2190000000
 Au         6.2190000000        0.0000000000        6.2190000000
 Au         6.2190000000        4.1460000000        6.2190000000
 Au         0.0000000000        0.0000000000        8.2920000000
 Au         0.0000000000        4.1460000000        8.2920000000
 Au         2.0730000000        2.0730000000        8.2920000000
 Au         2.0730000000        6.2190000000        8.2920000000
 Au         4.1460000000        0.0000000000        8.2920000000
 Au         4.1460000000        4.1460000000        8.2920000000
 Au         6.2190000000        2.0730000000        8.2920000000
 Au         6.2190000000        6.2190000000        8.2920000000
 Au         0.0000120226        2.0731212521       10.3752359300
 Au        -0.0000022366        6.2189233632       10.3353046477
 Au         2.0816677533        0.0143145735       10.3690723510
 Au         2.0816292521        4.1314197383       10.3690601921
 Au         4.1459948972        2.0728047325       10.3649369909
 Au         4.1459657794        6.2180908767       10.3599178769
 Au         6.2104157032        0.0143078038       10.3691527365
 Au         6.2104567382        4.1314292317       10.3691406660
 Au         0.0000373177       -0.0436346169       12.4561157995
 Au         0.0000385532        4.1898452007       12.4561222508
 Au         1.9504067022        2.0719740562       12.4795596517
 Au         2.0224497540        6.2195120034       12.4526171287
 Au         4.1459914710       -0.1304706451       12.4505379731
 Au         4.1459934506        4.2783990009       12.4516906901
 Au         6.3416664058        2.0719781716       12.4795340544
 Au         6.2694745983        6.2195140336       12.4527033721
  S         4.1458839177        2.0844256855       13.9454473200
  C         4.1432170107        2.0860114297       15.7080883230
  H         1.9942810665        2.0872737332       15.8434055404
  H         6.2925019773        2.0871178613       15.8513847506
  C         2.9346567507        2.0789316307       16.4037853209
  C         5.3499685489        2.0788688500       16.4080902305
  C         2.9322735569        2.0657756668       17.7830667609
  C         5.3474527917        2.0656620237       17.7873239313
  H         1.9900121853        2.0570402401       18.3402125902
  H         6.2876375035        2.0568652306       18.3480340266
  C         4.1388730648        2.0588513697       18.4827473371
  S         4.1388470785        2.0608949278       20.2440391766
 Au        -0.0075754302       -0.0492860297       21.7328315281
 Au        -0.0076370166        4.1950889996       21.7328532214
 Au         1.9438294130        2.0742010574       21.7090429983
 Au         2.0196430862        6.2183844411       21.7301552118
 Au         4.1358526953       -0.1242017573       21.7295247639
 Au         4.1359305152        4.2678118730       21.7305034187
 Au         6.3459943604        2.0741961149       21.7096507475
 Au         6.2190000000        6.2190000000       21.7550000000
 Au         0.0000000000        2.0730000000       23.8280000000
 Au         0.0000000000        6.2190000000       23.8280000000
 Au         2.0730000000        0.0000000000       23.8280000000
 Au         2.0730000000        4.1460000000       23.8280000000
 Au         4.1460000000        2.0730000000       23.8280000000
 Au         4.1460000000        6.2190000000       23.8280000000
 Au         6.2190000000        0.0000000000       23.8280000000
 Au         6.2190000000        4.1460000000       23.8280000000
 Au         0.0000000000        0.0000000000       25.9010000000
 Au         0.0000000000        4.1460000000       25.9010000000
 Au         2.0730000000        2.0730000000       25.9010000000
 Au         2.0730000000        6.2190000000       25.9010000000
 Au         4.1460000000        0.0000000000       25.9010000000
 Au         4.1460000000        4.1460000000       25.9010000000
 Au         6.2190000000        2.0730000000       25.9010000000
 Au         6.2190000000        6.2190000000       25.9010000000
 Au         0.0000000000        2.0730000000       27.9740000000
 Au         0.0000000000        6.2190000000       27.9740000000
 Au         2.0730000000        0.0000000000       27.9740000000
 Au         2.0730000000        4.1460000000       27.9740000000
 Au         4.1460000000        2.0730000000       27.9740000000
 Au         4.1460000000        6.2190000000       27.9740000000
 Au         6.2190000000        0.0000000000       27.9740000000
 Au         6.2190000000        4.1460000000       27.9740000000
 Au         0.0000000000        0.0000000000       30.0470000000
 Au         0.0000000000        4.1460000000       30.0470000000
 Au         2.0730000000        2.0730000000       30.0470000000
 Au         2.0730000000        6.2190000000       30.0470000000
 Au         4.1460000000        0.0000000000       30.0470000000
 Au         4.1460000000        4.1460000000       30.0470000000
 Au         6.2190000000        2.0730000000       30.0470000000
 Au         6.2190000000        6.2190000000       30.0470000000
 Au         0.0000000000        2.0730000000       32.1200000000
 Au         0.0000000000        6.2190000000       32.1200000000