 DBCSR| CPU Multiplication driver                                           XSMM
 DBCSR| Multrec recursion limit                                              512
 DBCSR| Multiplication stack size                                           1000
 DBCSR| Maximum elements for images                                    UNLIMITED
 DBCSR| Multiplicative factor virtual images                                   1
 DBCSR| Use multiplication densification                                       T
 DBCSR| Multiplication size stacks                                             3
 DBCSR| Use memory pool for CPU allocation                                     F
 DBCSR| Number of 3D layers                                               SINGLE
 DBCSR| Use MPI memory allocation                                              F
 DBCSR| Use RMA algorithm                                                      F
 DBCSR| Use Communication thread                                               T
 DBCSR| Communication thread load                                             87
 DBCSR| MPI: My node id                                                        0
 DBCSR| MPI: Number of nodes                                                 240
 DBCSR| OMP: Current number of threads                                         1
 DBCSR| OMP: Max number of threads                                             1
 DBCSR| Split modifier for TAS multiplication algorithm                  1.0E+00


  **** **** ******  **  PROGRAM STARTED AT               2023-02-22 11:01:51.031
 ***** ** ***  *** **   PROGRAM STARTED ON                 cn1098.scarf.rl.ac.uk
 **    ****   ******    PROGRAM STARTED BY                             scarf1157
 ***** **    ** ** **   PROGRAM PROCESS ID                                 35351
  **** **  *******  **  PROGRAM STARTED IN /work4/scd/scarf1157/work/testing/cp2
                                           k-smeagol/bdt/cp2k/hollow-site/transp
                                           ort-cp2k/5-4/geometry-ordered/3x3-4/s
                                           z/bulk_layers-4/geo_opt/dzvp/Au-S-2.5
                                           5_dft

 CP2K| version string:                 CP2K version 2022.1 (Development Version)
 CP2K| source code revision number:                                  git:1ef701d
 CP2K| cp2kflags: omp fftw3 libxc parallel mpi3 scalapack xsmm spglib           
 CP2K| is freely available from                            https://www.cp2k.org/
 CP2K| Program compiled at                          Thu 26 Jan 13:39:53 GMT 2023
 CP2K| Program compiled on                                 cn1108.scarf.rl.ac.uk
 CP2K| Program compiled for                                                local
 CP2K| Data directory path    /home/vol07/scarf1157/code/smeagol/cp2k-smeagol/sc
 CP2K| Input file name                                             2_dft_wfn.inp

 GLOBAL| Force Environment number                                              1
 GLOBAL| Basis set file name                                        BASIS_MOLOPT
 GLOBAL| Potential file name                                      GTH_POTENTIALS
 GLOBAL| MM Potential file name                                     MM_POTENTIAL
 GLOBAL| Coordinate file name                                             em.xyz
 GLOBAL| Method name                                                        CP2K
 GLOBAL| Project name                                                    dft_wfn
 GLOBAL| Run type                                                        GEO_OPT
 GLOBAL| FFT library                                                       FFTW3
 GLOBAL| Diagonalization library                                       ScaLAPACK
 GLOBAL| Orthonormality check for eigenvectors                          DISABLED
 GLOBAL| Matrix multiplication library                                 ScaLAPACK
 GLOBAL| All-to-all communication in single precision                          F
 GLOBAL| FFTs using library dependent lengths                                  T
 GLOBAL| Grid backend                                                       AUTO
 GLOBAL| Global print level                                               MEDIUM
 GLOBAL| MPI I/O enabled                                                       T
 GLOBAL| Total number of message passing processes                           240
 GLOBAL| Number of threads for this process                                    1
 GLOBAL| This output is from process                                           0
 GLOBAL| Stack size for threads created by OpenMP (OMP_STACKSIZE)        default
 GLOBAL| CPU model name                         AMD EPYC 7502P 32-Core Processor
 GLOBAL| CPUID                                                              1002

 MEMORY| system memory details [Kb]
 MEMORY|                        rank 0           min           max       average
 MEMORY| MemTotal            263896980     263896980     263896984     263896981
 MEMORY| MemFree             141632444     141632444     226945440     196179699
 MEMORY| Buffers                  2568          2560          2576          2566
 MEMORY| Cached              103097756      21503168     103097756      51500107
 MEMORY| Slab                  1276688       1094952       1284640       1199910
 MEMORY| SReclaimable           749884        576108        749884        666141
 MEMORY| MemLikelyFree       245482652     245482652     249046364     248348513


 *** Fundamental physical constants (SI units) ***

 *** Literature: B. J. Mohr and B. N. Taylor,
 ***             CODATA recommended values of the fundamental physical
 ***             constants: 2006, Web Version 5.1
 ***             http://physics.nist.gov/constants

 Speed of light in vacuum [m/s]                             2.99792458000000E+08
 Magnetic constant or permeability of vacuum [N/A**2]       1.25663706143592E-06
 Electric constant or permittivity of vacuum [F/m]          8.85418781762039E-12
 Planck constant (h) [J*s]                                  6.62606896000000E-34
 Planck constant (h-bar) [J*s]                              1.05457162825177E-34
 Elementary charge [C]                                      1.60217648700000E-19
 Electron mass [kg]                                         9.10938215000000E-31
 Electron g factor [ ]                                     -2.00231930436220E+00
 Proton mass [kg]                                           1.67262163700000E-27
 Fine-structure constant                                    7.29735253760000E-03
 Rydberg constant [1/m]                                     1.09737315685270E+07
 Avogadro constant [1/mol]                                  6.02214179000000E+23
 Boltzmann constant [J/K]                                   1.38065040000000E-23
 Atomic mass unit [kg]                                      1.66053878200000E-27
 Bohr radius [m]                                            5.29177208590000E-11

 *** Conversion factors ***

 [u] -> [a.u.]                                              1.82288848426455E+03
 [Angstrom] -> [Bohr] = [a.u.]                              1.88972613288564E+00
 [a.u.] = [Bohr] -> [Angstrom]                              5.29177208590000E-01
 [a.u.] -> [s]                                              2.41888432650478E-17
 [a.u.] -> [fs]                                             2.41888432650478E-02
 [a.u.] -> [J]                                              4.35974393937059E-18
 [a.u.] -> [N]                                              8.23872205491840E-08
 [a.u.] -> [K]                                              3.15774647902944E+05
 [a.u.] -> [kJ/mol]                                         2.62549961709828E+03
 [a.u.] -> [kcal/mol]                                       6.27509468713739E+02
 [a.u.] -> [Pa]                                             2.94210107994716E+13
 [a.u.] -> [bar]                                            2.94210107994716E+08
 [a.u.] -> [atm]                                            2.90362800883016E+08
 [a.u.] -> [eV]                                             2.72113838565563E+01
 [a.u.] -> [Hz]                                             6.57968392072181E+15
 [a.u.] -> [1/cm] (wave numbers)                            2.19474631370540E+05
 [a.u./Bohr**2] -> [1/cm]                                   5.14048714338585E+03
 

 CELL_TOP| Volume [angstrom^3]:                                      2351.017128
 CELL_TOP| Vector a [angstrom     8.292     0.000     0.000   |a| =     8.292000
 CELL_TOP| Vector b [angstrom     0.000     8.292     0.000   |b| =     8.292000
 CELL_TOP| Vector c [angstrom     0.000     0.000    34.193   |c| =    34.193000
 CELL_TOP| Angle (b,c), alpha [degree]:                                90.000000
 CELL_TOP| Angle (a,c), beta  [degree]:                                90.000000
 CELL_TOP| Angle (a,b), gamma [degree]:                                90.000000
 CELL_TOP| Numerically orthorhombic:                                         YES
 CELL_TOP| Periodicity                                                       XYZ

 GENERATE|  Preliminary Number of Bonds generated:                             0
 GENERATE|  Achieved consistency in connectivity generation.

 CELL| Volume [angstrom^3]:                                          2351.017128
 CELL| Vector a [angstrom]:       8.292     0.000     0.000   |a| =     8.292000
 CELL| Vector b [angstrom]:       0.000     8.292     0.000   |b| =     8.292000
 CELL| Vector c [angstrom]:       0.000     0.000    34.193   |c| =    34.193000
 CELL| Angle (b,c), alpha [degree]:                                    90.000000
 CELL| Angle (a,c), beta  [degree]:                                    90.000000
 CELL| Angle (a,b), gamma [degree]:                                    90.000000
 CELL| Numerically orthorhombic:                                             YES
 CELL| Periodicity                                                           XYZ

 CELL_REF| Volume [angstrom^3]:                                      2351.017128
 CELL_REF| Vector a [angstrom     8.292     0.000     0.000   |a| =     8.292000
 CELL_REF| Vector b [angstrom     0.000     8.292     0.000   |b| =     8.292000
 CELL_REF| Vector c [angstrom     0.000     0.000    34.193   |c| =    34.193000
 CELL_REF| Angle (b,c), alpha [degree]:                                90.000000
 CELL_REF| Angle (a,c), beta  [degree]:                                90.000000
 CELL_REF| Angle (a,b), gamma [degree]:                                90.000000
 CELL_REF| Numerically orthorhombic:                                         YES
 CELL_REF| Periodicity                                                       XYZ

 *******************************************************************************
                                    Kpoints
 *******************************************************************************
 BRILLOUIN| K-point scheme                                        Monkhorst-Pack
 BRILLOUIN| K-Point grid                                             2    2    1
 BRILLOUIN| Accuracy in Symmetry determination                      0.100000E-07
 BRILLOUIN| K-Point point group symmetrization                               OFF
 BRILLOUIN| Wavefunction type                                            COMPLEX
 BRILLOUIN| Use full k-point grid     
 BRILLOUIN| List of Kpoints [2 Pi/Bohr]                                        4
 BRILLOUIN| Number           Weight            X              Y              Z
 BRILLOUIN|     1           0.25000       -0.25000       -0.25000        0.00000
 BRILLOUIN|     2           0.25000       -0.25000        0.25000        0.00000
 BRILLOUIN|     3           0.25000        0.25000       -0.25000        0.00000
 BRILLOUIN|     4           0.25000        0.25000        0.25000        0.00000
 *******************************************************************************

 *******************************************************************************
 *******************************************************************************
 **                                                                           **
 **     #####                         ##              ##                      **
 **    ##   ##            ##          ##              ##                      **
 **   ##     ##                       ##            ######                    **
 **   ##     ##  ##   ##  ##   #####  ##  ##   ####   ##    #####    #####    **
 **   ##     ##  ##   ##  ##  ##      ## ##   ##      ##   ##   ##  ##   ##   **
 **   ##  ## ##  ##   ##  ##  ##      ####     ###    ##   ######   ######    **
 **    ##  ###   ##   ##  ##  ##      ## ##      ##   ##   ##       ##        **
 **     #######   #####   ##   #####  ##  ##  ####    ##    #####   ##        **
 **           ##                                                    ##        **
 **                                                                           **
 **                                                ... make the atoms dance   **
 **                                                                           **
 **            Copyright (C) by CP2K developers group (2000-2022)             **
 **                      J. Chem. Phys. 152, 194103 (2020)                    **
 **                                                                           **
 *******************************************************************************

 DFT| Spin restricted Kohn-Sham (RKS) calculation                            RKS
 DFT| Multiplicity                                                             1
 DFT| Number of spin states                                                    1
 DFT| Charge                                                                   0
 DFT| Self-interaction correction (SIC)                                       NO
 DFT| Cutoffs: density                                              1.000000E-10
 DFT|          gradient                                             1.000000E-10
 DFT|          tau                                                  1.000000E-10
 DFT|          cutoff_smoothing_range                               0.000000E+00
 DFT| XC density smoothing                                                  NONE
 DFT| XC derivatives                                                          PW

 FUNCTIONAL| PADE:
 FUNCTIONAL| S. Goedecker, M. Teter and J. Hutter, Phys. Rev. B 54, 1703 (1996) 


 QS| Method:                                                                 GPW
 QS| Density plane wave grid type                        NON-SPHERICAL FULLSPACE
 QS| Number of grid levels:                                                    4
 QS| Density cutoff [a.u.]:                                                200.0
 QS| Multi grid cutoff [a.u.]: 1) grid level                               200.0
 QS|                           2) grid level                                66.7
 QS|                           3) grid level                                22.2
 QS|                           4) grid level                                 7.4
 QS| Grid level progression factor:                                          3.0
 QS| Relative density cutoff [a.u.]:                                        20.0
 QS| Interaction thresholds: eps_pgf_orb:                                1.0E-05
 QS|                         eps_filter_matrix:                          0.0E+00
 QS|                         eps_core_charge:                            1.0E-12
 QS|                         eps_rho_gspace:                             1.0E-10
 QS|                         eps_rho_rspace:                             1.0E-10
 QS|                         eps_gvg_rspace:                             1.0E-05
 QS|                         eps_ppl:                                    1.0E-02
 QS|                         eps_ppnl:                                   1.0E-07


 ATOMIC KIND INFORMATION

  1. Atomic kind: Au                                    Number of atoms:     104

     Orbital Basis Set                                         SZV-MOLOPT-SR-GTH

       Number of orbital shell sets:                                           1
       Number of orbital shells:                                               3
       Number of primitive Cartesian functions:                                5
       Number of Cartesian basis functions:                                   10
       Number of spherical basis functions:                                    9
       Norm type:                                                              2

       Normalised Cartesian orbitals:

                        Set   Shell   Orbital            Exponent    Coefficient

                          1       1    2s                2.950008       0.074626
                                                         1.563057      -0.007898
                                                         0.666664      -0.297688
                                                         0.251083       0.136809
                                                         0.081714       0.088198

                          1       2    3px               2.950008       0.148824
                                                         1.563057       0.025430
                                                         0.666664      -0.123003
                                                         0.251083       0.033648
                                                         0.081714       0.059008
                          1       2    3py               2.950008       0.148824
                                                         1.563057       0.025430
                                                         0.666664      -0.123003
                                                         0.251083       0.033648
                                                         0.081714       0.059008
                          1       2    3pz               2.950008       0.148824
                                                         1.563057       0.025430
                                                         0.666664      -0.123003
                                                         0.251083       0.033648
                                                         0.081714       0.059008

                          1       3    4dx2              2.950008      -0.139595
                                                         1.563057       1.319655
                                                         0.666664       0.377081
                                                         0.251083       0.046872
                                                         0.081714       0.001393
                          1       3    4dxy              2.950008      -0.241786
                                                         1.563057       2.285709
                                                         0.666664       0.653124
                                                         0.251083       0.081185
                                                         0.081714       0.002412
                          1       3    4dxz              2.950008      -0.241786
                                                         1.563057       2.285709
                                                         0.666664       0.653124
                                                         0.251083       0.081185
                                                         0.081714       0.002412
                          1       3    4dy2              2.950008      -0.139595
                                                         1.563057       1.319655
                                                         0.666664       0.377081
                                                         0.251083       0.046872
                                                         0.081714       0.001393
                          1       3    4dyz              2.950008      -0.241786
                                                         1.563057       2.285709
                                                         0.666664       0.653124
                                                         0.251083       0.081185
                                                         0.081714       0.002412
                          1       3    4dz2              2.950008      -0.139595
                                                         1.563057       1.319655
                                                         0.666664       0.377081
                                                         0.251083       0.046872
                                                         0.081714       0.001393

       Atomic covalent radius [Angstrom]:                                  1.340

       Atomic van der Waals radius [Angstrom]:                             1.660

     GTH Potential information for                                  GTH-PADE-q11

       Description:                       Goedecker-Teter-Hutter pseudopotential
                                           Goedecker et al., PRB 54, 1703 (1996)
                                          Hartwigsen et al., PRB 58, 3641 (1998)
                                                      Krack, TCA 114, 145 (2005)

       Gaussian exponent of the core charge distribution:               1.436369
       Electronic configuration (s p d ...):                           1   0  10

       Parameters of the local part of the GTH pseudopotential:

                          rloc        C1          C2          C3          C4
                        0.590000   11.604428

       Parameters of the non-local part of the GTH pseudopotential:

                   l      r(l)      h(i,j,l)

                   0    0.521180    2.538614   -1.046137
                                   -1.046137    2.701113
                   1    0.630613    0.394853   -0.869592
                                   -0.869592    2.057831
                   2    0.440706   -4.719070    0.727771
                                    0.727771   -1.650429

  2. Atomic kind: S                                     Number of atoms:       2

     Orbital Basis Set                                        DZVP-MOLOPT-SR-GTH

       Number of orbital shell sets:                                           1
       Number of orbital shells:                                               5
       Number of primitive Cartesian functions:                                4
       Number of Cartesian basis functions:                                   14
       Number of spherical basis functions:                                   13
       Norm type:                                                              2

       Normalised Cartesian orbitals:

                        Set   Shell   Orbital            Exponent    Coefficient

                          1       1    2s                2.215855       0.308496
                                                         1.131471       0.138505
                                                         0.410168      -0.373736
                                                         0.140587      -0.040370

                          1       2    3s                2.215855      -0.329528
                                                         1.131471      -0.517509
                                                         0.410168       0.787368
                                                         0.140587      -0.322786

                          1       3    3px               2.215855       0.420434
                                                         1.131471      -0.319283
                                                         0.410168      -0.335323
                                                         0.140587      -0.030976
                          1       3    3py               2.215855       0.420434
                                                         1.131471      -0.319283
                                                         0.410168      -0.335323
                                                         0.140587      -0.030976
                          1       3    3pz               2.215855       0.420434
                                                         1.131471      -0.319283
                                                         0.410168      -0.335323
                                                         0.140587      -0.030976

                          1       4    4px               2.215855       0.241296
                                                         1.131471      -0.170582
                                                         0.410168      -0.186977
                                                         0.140587       0.153509
                          1       4    4py               2.215855       0.241296
                                                         1.131471      -0.170582
                                                         0.410168      -0.186977
                                                         0.140587       0.153509
                          1       4    4pz               2.215855       0.241296
                                                         1.131471      -0.170582
                                                         0.410168      -0.186977
                                                         0.140587       0.153509

                          1       5    4dx2              2.215855       0.573559
                                                         1.131471       0.544926
                                                         0.410168       0.228284
                                                         0.140587       0.008811
                          1       5    4dxy              2.215855       0.993434
                                                         1.131471       0.943840
                                                         0.410168       0.395400
                                                         0.140587       0.015260
                          1       5    4dxz              2.215855       0.993434
                                                         1.131471       0.943840
                                                         0.410168       0.395400
                                                         0.140587       0.015260
                          1       5    4dy2              2.215855       0.573559
                                                         1.131471       0.544926
                                                         0.410168       0.228284
                                                         0.140587       0.008811
                          1       5    4dyz              2.215855       0.993434
                                                         1.131471       0.943840
                                                         0.410168       0.395400
                                                         0.140587       0.015260
                          1       5    4dz2              2.215855       0.573559
                                                         1.131471       0.544926
                                                         0.410168       0.228284
                                                         0.140587       0.008811

       Atomic covalent radius [Angstrom]:                                  1.020

       Atomic van der Waals radius [Angstrom]:                             1.800

     GTH Potential information for                                   GTH-PADE-q6

       Description:                       Goedecker-Teter-Hutter pseudopotential
                                           Goedecker et al., PRB 54, 1703 (1996)
                                          Hartwigsen et al., PRB 58, 3641 (1998)
                                                      Krack, TCA 114, 145 (2005)

       Gaussian exponent of the core charge distribution:               2.834467
       Electronic configuration (s p d ...):                               2   4

       Parameters of the local part of the GTH pseudopotential:

                          rloc        C1          C2          C3          C4
                        0.420000   -6.554492

       Parameters of the non-local part of the GTH pseudopotential:

                   l      r(l)      h(i,j,l)

                   0    0.361757    7.905303   -1.731881
                                   -1.731881    4.471698
                   1    0.405285    3.866579

  3. Atomic kind: C                                     Number of atoms:       6

     Orbital Basis Set                                        DZVP-MOLOPT-SR-GTH

       Number of orbital shell sets:                                           1
       Number of orbital shells:                                               5
       Number of primitive Cartesian functions:                                5
       Number of Cartesian basis functions:                                   14
       Number of spherical basis functions:                                   13
       Norm type:                                                              2

       Normalised Cartesian orbitals:

                        Set   Shell   Orbital            Exponent    Coefficient

                          1       1    2s                5.605331       0.322515
                                                         2.113016       0.213043
                                                         0.769911      -0.209686
                                                         0.348157      -0.219794
                                                         0.128212      -0.022789

                          1       2    3s                5.605331       0.552234
                                                         2.113016       0.082072
                                                         0.769911       0.007843
                                                         0.348157       0.136893
                                                         0.128212       0.074283

                          1       3    3px               5.605331      -0.703879
                                                         2.113016      -0.642521
                                                         0.769911      -0.374851
                                                         0.348157      -0.139743
                                                         0.128212      -0.027849
                          1       3    3py               5.605331      -0.703879
                                                         2.113016      -0.642521
                                                         0.769911      -0.374851
                                                         0.348157      -0.139743
                                                         0.128212      -0.027849
                          1       3    3pz               5.605331      -0.703879
                                                         2.113016      -0.642521
                                                         0.769911      -0.374851
                                                         0.348157      -0.139743
                                                         0.128212      -0.027849

                          1       4    4px               5.605331      -0.480376
                                                         2.113016      -0.552894
                                                         0.769911      -0.316145
                                                         0.348157       0.210505
                                                         0.128212       0.076095
                          1       4    4py               5.605331      -0.480376
                                                         2.113016      -0.552894
                                                         0.769911      -0.316145
                                                         0.348157       0.210505
                                                         0.128212       0.076095
                          1       4    4pz               5.605331      -0.480376
                                                         2.113016      -0.552894
                                                         0.769911      -0.316145
                                                         0.348157       0.210505
                                                         0.128212       0.076095

                          1       5    4dx2              5.605331       0.640026
                                                         2.113016       0.274300
                                                         0.769911       0.446711
                                                         0.348157       0.028674
                                                         0.128212       0.029790
                          1       5    4dxy              5.605331       1.108557
                                                         2.113016       0.475102
                                                         0.769911       0.773726
                                                         0.348157       0.049666
                                                         0.128212       0.051599
                          1       5    4dxz              5.605331       1.108557
                                                         2.113016       0.475102
                                                         0.769911       0.773726
                                                         0.348157       0.049666
                                                         0.128212       0.051599
                          1       5    4dy2              5.605331       0.640026
                                                         2.113016       0.274300
                                                         0.769911       0.446711
                                                         0.348157       0.028674
                                                         0.128212       0.029790
                          1       5    4dyz              5.605331       1.108557
                                                         2.113016       0.475102
                                                         0.769911       0.773726
                                                         0.348157       0.049666
                                                         0.128212       0.051599
                          1       5    4dz2              5.605331       0.640026
                                                         2.113016       0.274300
                                                         0.769911       0.446711
                                                         0.348157       0.028674
                                                         0.128212       0.029790

       Atomic covalent radius [Angstrom]:                                  0.770

       Atomic van der Waals radius [Angstrom]:                             1.700

     GTH Potential information for                                   GTH-PADE-q4

       Description:                       Goedecker-Teter-Hutter pseudopotential
                                           Goedecker et al., PRB 54, 1703 (1996)
                                          Hartwigsen et al., PRB 58, 3641 (1998)
                                                      Krack, TCA 114, 145 (2005)

       Gaussian exponent of the core charge distribution:               4.109048
       Electronic configuration (s p d ...):                               2   2

       Parameters of the local part of the GTH pseudopotential:

                          rloc        C1          C2          C3          C4
                        0.348830   -8.513771    1.228432

       Parameters of the non-local part of the GTH pseudopotential:

                   l      r(l)      h(i,j,l)

                   0    0.304553    9.522842
                   1    0.232677

  4. Atomic kind: H                                     Number of atoms:       4

     Orbital Basis Set                                        DZVP-MOLOPT-SR-GTH

       Number of orbital shell sets:                                           1
       Number of orbital shells:                                               3
       Number of primitive Cartesian functions:                                5
       Number of Cartesian basis functions:                                    5
       Number of spherical basis functions:                                    5
       Norm type:                                                              2

       Normalised Cartesian orbitals:

                        Set   Shell   Orbital            Exponent    Coefficient

                          1       1    2s               10.068468      -0.133023
                                                         2.680223      -0.177618
                                                         0.791502      -0.258419
                                                         0.239116      -0.107525
                                                         0.082193      -0.014019

                          1       2    3s               10.068468       0.344673
                                                         2.680223       1.819821
                                                         0.791502      -0.999069
                                                         0.239116       0.017430
                                                         0.082193       0.082660

                          1       3    3px              10.068468       0.155326
                                                         2.680223       0.367157
                                                         0.791502       0.311480
                                                         0.239116       0.080105
                                                         0.082193       0.033440
                          1       3    3py              10.068468       0.155326
                                                         2.680223       0.367157
                                                         0.791502       0.311480
                                                         0.239116       0.080105
                                                         0.082193       0.033440
                          1       3    3pz              10.068468       0.155326
                                                         2.680223       0.367157
                                                         0.791502       0.311480
                                                         0.239116       0.080105
                                                         0.082193       0.033440

       Atomic covalent radius [Angstrom]:                                  0.320

       Atomic van der Waals radius [Angstrom]:                             1.090

     GTH Potential information for                                   GTH-PADE-q1

       Description:                       Goedecker-Teter-Hutter pseudopotential
                                           Goedecker et al., PRB 54, 1703 (1996)
                                          Hartwigsen et al., PRB 58, 3641 (1998)
                                                      Krack, TCA 114, 145 (2005)

       Gaussian exponent of the core charge distribution:              12.500000
       Electronic configuration (s p d ...):                                   1

       Parameters of the local part of the GTH pseudopotential:

                          rloc        C1          C2          C3          C4
                        0.200000   -4.180237    0.725075


 MOLECULE KIND INFORMATION


 All atoms are their own molecule, skipping detailed information


 TOTAL NUMBERS AND MAXIMUM NUMBERS

  Total number of            - Atomic kinds:                                   4
                             - Atoms:                                        116
                             - Shell sets:                                   116
                             - Shells:                                       364
                             - Primitive Cartesian functions:                578
                             - Cartesian basis functions:                   1172
                             - Spherical basis functions:                   1060

  Maximum angular momentum of- Orbital basis functions:                        2
                             - Local part of the GTH pseudopotential:          2
                             - Non-local part of the GTH pseudopotential:      4


 MODULE QUICKSTEP: ATOMIC COORDINATES IN ANGSTROM

   Atom Kind Element         X             Y             Z       Z(eff)     Mass
      1    1 Au   79      0.000000      0.000000      0.000000  11.0000 196.9666
      2    1 Au   79      0.000000      4.146000      0.000000  11.0000 196.9666
      3    1 Au   79      2.073000      2.073000      0.000000  11.0000 196.9666
      4    1 Au   79      2.073000      6.219000      0.000000  11.0000 196.9666
      5    1 Au   79      4.146000      0.000000      0.000000  11.0000 196.9666
      6    1 Au   79      4.146000      4.146000      0.000000  11.0000 196.9666
      7    1 Au   79      6.219000      2.073000      0.000000  11.0000 196.9666
      8    1 Au   79      6.219000      6.219000      0.000000  11.0000 196.9666
      9    1 Au   79      0.000000      2.073000      2.073000  11.0000 196.9666
     10    1 Au   79      0.000000      6.219000      2.073000  11.0000 196.9666
     11    1 Au   79      2.073000      0.000000      2.073000  11.0000 196.9666
     12    1 Au   79      2.073000      4.146000      2.073000  11.0000 196.9666
     13    1 Au   79      4.146000      2.073000      2.073000  11.0000 196.9666
     14    1 Au   79      4.146000      6.219000      2.073000  11.0000 196.9666
     15    1 Au   79      6.219000      0.000000      2.073000  11.0000 196.9666
     16    1 Au   79      6.219000      4.146000      2.073000  11.0000 196.9666
     17    1 Au   79      0.000000      0.000000      4.146000  11.0000 196.9666
     18    1 Au   79      0.000000      4.146000      4.146000  11.0000 196.9666
     19    1 Au   79      2.073000      2.073000      4.146000  11.0000 196.9666
     20    1 Au   79      2.073000      6.219000      4.146000  11.0000 196.9666
     21    1 Au   79      4.146000      0.000000      4.146000  11.0000 196.9666
     22    1 Au   79      4.146000      4.146000      4.146000  11.0000 196.9666
     23    1 Au   79      6.219000      2.073000      4.146000  11.0000 196.9666
     24    1 Au   79      6.219000      6.219000      4.146000  11.0000 196.9666
     25    1 Au   79      0.000000      2.073000      6.219000  11.0000 196.9666
     26    1 Au   79      0.000000      6.219000      6.219000  11.0000 196.9666
     27    1 Au   79      2.073000      0.000000      6.219000  11.0000 196.9666
     28    1 Au   79      2.073000      4.146000      6.219000  11.0000 196.9666
     29    1 Au   79      4.146000      2.073000      6.219000  11.0000 196.9666
     30    1 Au   79      4.146000      6.219000      6.219000  11.0000 196.9666
     31    1 Au   79      6.219000      0.000000      6.219000  11.0000 196.9666
     32    1 Au   79      6.219000      4.146000      6.219000  11.0000 196.9666
     33    1 Au   79      0.000000      0.000000      8.292000  11.0000 196.9666
     34    1 Au   79      0.000000      4.146000      8.292000  11.0000 196.9666
     35    1 Au   79      2.073000      2.073000      8.292000  11.0000 196.9666
     36    1 Au   79      2.073000      6.219000      8.292000  11.0000 196.9666
     37    1 Au   79      4.146000      0.000000      8.292000  11.0000 196.9666
     38    1 Au   79      4.146000      4.146000      8.292000  11.0000 196.9666
     39    1 Au   79      6.219000      2.073000      8.292000  11.0000 196.9666
     40    1 Au   79      6.219000      6.219000      8.292000  11.0000 196.9666
     41    1 Au   79      0.000000      2.073000     10.365000  11.0000 196.9666
     42    1 Au   79      0.000000      6.219000     10.365000  11.0000 196.9666
     43    1 Au   79      2.073000      0.000000     10.365000  11.0000 196.9666
     44    1 Au   79      2.073000      4.146000     10.365000  11.0000 196.9666
     45    1 Au   79      4.146000      2.073000     10.365000  11.0000 196.9666
     46    1 Au   79      4.146000      6.219000     10.365000  11.0000 196.9666
     47    1 Au   79      6.219000      0.000000     10.365000  11.0000 196.9666
     48    1 Au   79      6.219000      4.146000     10.365000  11.0000 196.9666
     49    1 Au   79      0.000000      0.000000     12.438000  11.0000 196.9666
     50    1 Au   79      0.000000      4.146000     12.438000  11.0000 196.9666
     51    1 Au   79      2.073000      2.073000     12.438000  11.0000 196.9666
     52    1 Au   79      2.073000      6.219000     12.438000  11.0000 196.9666
     53    1 Au   79      4.146000      0.000000     12.438000  11.0000 196.9666
     54    1 Au   79      4.146000      4.146000     12.438000  11.0000 196.9666
     55    1 Au   79      6.219000      2.073000     12.438000  11.0000 196.9666
     56    1 Au   79      6.219000      6.219000     12.438000  11.0000 196.9666
     57    2 S    16      4.146000      2.073000     13.923000   6.0000  32.0650
     58    3 C     6      4.149000      2.077000     15.684000   4.0000  12.0107
     59    4 H     1      2.047000      2.103000     15.868000   1.0000   1.0079
     60    4 H     1      6.244000      2.103000     15.874000   1.0000   1.0079
     61    3 C     6      2.940000      2.083000     16.385000   4.0000  12.0107
     62    3 C     6      5.348000      2.083000     16.385000   4.0000  12.0107
     63    3 C     6      2.933000      2.061000     17.808000   4.0000  12.0107
     64    3 C     6      5.341000      2.061000     17.808000   4.0000  12.0107
     65    4 H     1      2.037000      2.041000     18.319000   1.0000   1.0079
     66    4 H     1      6.234000      2.041000     18.325000   1.0000   1.0079
     67    3 C     6      4.132000      2.067000     18.508000   4.0000  12.0107
     68    2 S    16      4.146000      2.073000     20.270000   6.0000  32.0650
     69    1 Au   79      0.000000      0.000000     21.755000  11.0000 196.9666
     70    1 Au   79      0.000000      4.146000     21.755000  11.0000 196.9666
     71    1 Au   79      2.073000      2.073000     21.755000  11.0000 196.9666
     72    1 Au   79      2.073000      6.219000     21.755000  11.0000 196.9666
     73    1 Au   79      4.146000      0.000000     21.755000  11.0000 196.9666
     74    1 Au   79      4.146000      4.146000     21.755000  11.0000 196.9666
     75    1 Au   79      6.219000      2.073000     21.755000  11.0000 196.9666
     76    1 Au   79      6.219000      6.219000     21.755000  11.0000 196.9666
     77    1 Au   79      0.000000      2.073000     23.828000  11.0000 196.9666
     78    1 Au   79      0.000000      6.219000     23.828000  11.0000 196.9666
     79    1 Au   79      2.073000      0.000000     23.828000  11.0000 196.9666
     80    1 Au   79      2.073000      4.146000     23.828000  11.0000 196.9666
     81    1 Au   79      4.146000      2.073000     23.828000  11.0000 196.9666
     82    1 Au   79      4.146000      6.219000     23.828000  11.0000 196.9666
     83    1 Au   79      6.219000      0.000000     23.828000  11.0000 196.9666
     84    1 Au   79      6.219000      4.146000     23.828000  11.0000 196.9666
     85    1 Au   79      0.000000      0.000000     25.901000  11.0000 196.9666
     86    1 Au   79      0.000000      4.146000     25.901000  11.0000 196.9666
     87    1 Au   79      2.073000      2.073000     25.901000  11.0000 196.9666
     88    1 Au   79      2.073000      6.219000     25.901000  11.0000 196.9666
     89    1 Au   79      4.146000      0.000000     25.901000  11.0000 196.9666
     90    1 Au   79      4.146000      4.146000     25.901000  11.0000 196.9666
     91    1 Au   79      6.219000      2.073000     25.901000  11.0000 196.9666
     92    1 Au   79      6.219000      6.219000     25.901000  11.0000 196.9666
     93    1 Au   79      0.000000      2.073000     27.974000  11.0000 196.9666
     94    1 Au   79      0.000000      6.219000     27.974000  11.0000 196.9666
     95    1 Au   79      2.073000      0.000000     27.974000  11.0000 196.9666
     96    1 Au   79      2.073000      4.146000     27.974000  11.0000 196.9666
     97    1 Au   79      4.146000      2.073000     27.974000  11.0000 196.9666
     98    1 Au   79      4.146000      6.219000     27.974000  11.0000 196.9666
     99    1 Au   79      6.219000      0.000000     27.974000  11.0000 196.9666
    100    1 Au   79      6.219000      4.146000     27.974000  11.0000 196.9666
    101    1 Au   79      0.000000      0.000000     30.047000  11.0000 196.9666
    102    1 Au   79      0.000000      4.146000     30.047000  11.0000 196.9666
    103    1 Au   79      2.073000      2.073000     30.047000  11.0000 196.9666
    104    1 Au   79      2.073000      6.219000     30.047000  11.0000 196.9666
    105    1 Au   79      4.146000      0.000000     30.047000  11.0000 196.9666
    106    1 Au   79      4.146000      4.146000     30.047000  11.0000 196.9666
    107    1 Au   79      6.219000      2.073000     30.047000  11.0000 196.9666
    108    1 Au   79      6.219000      6.219000     30.047000  11.0000 196.9666
    109    1 Au   79      0.000000      2.073000     32.120000  11.0000 196.9666
    110    1 Au   79      0.000000      6.219000     32.120000  11.0000 196.9666
    111    1 Au   79      2.073000      0.000000     32.120000  11.0000 196.9666
    112    1 Au   79      2.073000      4.146000     32.120000  11.0000 196.9666
    113    1 Au   79      4.146000      2.073000     32.120000  11.0000 196.9666
    114    1 Au   79      4.146000      6.219000     32.120000  11.0000 196.9666
    115    1 Au   79      6.219000      0.000000     32.120000  11.0000 196.9666
    116    1 Au   79      6.219000      4.146000     32.120000  11.0000 196.9666



 SCF PARAMETERS         Density guess:                                    ATOMIC
                        --------------------------------------------------------
                        max_scf:                                             100
                        max_scf_history:                                       0
                        max_diis:                                              4
                        --------------------------------------------------------
                        eps_scf:                                        1.00E-07
                        eps_scf_history:                                0.00E+00
                        eps_diis:                                       1.00E-01
                        eps_eigval:                                     1.00E-05
                        --------------------------------------------------------
                        level_shift [a.u.]:                             0.000000
                        added MOs                                       100    0
                        --------------------------------------------------------
                        Mixing method:                            BROYDEN_MIXING
                                                charge density mixing in g-space
                        --------------------------------------------------------
                        Smear method:                                FERMI_DIRAC
                        Electronic temperature [K]:                        293.0
                        Electronic temperature [a.u.]:                  9.28E-04
                        Accuracy threshold:                             1.00E-10
                        --------------------------------------------------------
                        No outer SCF

 PW_GRID| Information for grid number                                          1
 PW_GRID| Grid distributed over                                   240 processors
 PW_GRID| Real space group dimensions                                    12   20
 PW_GRID| the grid is blocked:                                               YES
 PW_GRID| Cutoff [a.u.]                                                    200.0
 PW_GRID| spherical cutoff:                                                   NO
 PW_GRID|   Bounds   1            -49      49                Points:          99
 PW_GRID|   Bounds   2            -49      49                Points:          99
 PW_GRID|   Bounds   3           -210     209                Points:         420
 PW_GRID| Volume element (a.u.^3)  0.3854E-02     Volume (a.u.^3)     15865.4502
 PW_GRID| Grid span                                                    FULLSPACE
 PW_GRID|   Distribution                         Average         Max         Min
 PW_GRID|   G-Vectors                            17151.8       18711       16632
 PW_GRID|   G-Rays                                 173.2         189         168
 PW_GRID|   Real Space Points                    17151.8       18711       16632

 PW_GRID| Information for grid number                                          2
 PW_GRID| Number of the reference grid                                         1
 PW_GRID| Grid distributed over                                   240 processors
 PW_GRID| Real space group dimensions                                    12   20
 PW_GRID| the grid is blocked:                                                NO
 PW_GRID| Cutoff [a.u.]                                                     66.7
 PW_GRID| spherical cutoff:                                                   NO
 PW_GRID|   Bounds   1            -30      29                Points:          60
 PW_GRID|   Bounds   2            -30      29                Points:          60
 PW_GRID|   Bounds   3           -120     119                Points:         240
 PW_GRID| Volume element (a.u.^3)  0.1836E-01     Volume (a.u.^3)     15865.4502
 PW_GRID| Grid span                                                    FULLSPACE
 PW_GRID|   Distribution                         Average         Max         Min
 PW_GRID|   G-Vectors                             3600.0       11340           0
 PW_GRID|   G-Rays                                  60.0         189           0
 PW_GRID|   Real Space Points                     3600.0        3600        3600

 PW_GRID| Information for grid number                                          3
 PW_GRID| Number of the reference grid                                         1
 PW_GRID| Grid distributed over                                   240 processors
 PW_GRID| Real space group dimensions                                    12   20
 PW_GRID| the grid is blocked:                                                NO
 PW_GRID| Cutoff [a.u.]                                                     22.2
 PW_GRID| spherical cutoff:                                                   NO
 PW_GRID|   Bounds   1            -16      16                Points:          33
 PW_GRID|   Bounds   2            -16      16                Points:          33
 PW_GRID|   Bounds   3            -70      69                Points:         140
 PW_GRID| Volume element (a.u.^3)  0.1041         Volume (a.u.^3)     15865.4502
 PW_GRID| Grid span                                                    FULLSPACE
 PW_GRID|   Distribution                         Average         Max         Min
 PW_GRID|   G-Vectors                              635.2        6237           0
 PW_GRID|   G-Rays                                  19.2         189           0
 PW_GRID|   Real Space Points                      635.2         840         280

 PW_GRID| Information for grid number                                          4
 PW_GRID| Number of the reference grid                                         1
 PW_GRID| Grid distributed over                                   240 processors
 PW_GRID| Real space group dimensions                                    12   20
 PW_GRID| the grid is blocked:                                                NO
 PW_GRID| Cutoff [a.u.]                                                      7.4
 PW_GRID| spherical cutoff:                                                   NO
 PW_GRID|   Bounds   1            -10       9                Points:          20
 PW_GRID|   Bounds   2            -10       9                Points:          20
 PW_GRID|   Bounds   3            -40      39                Points:          80
 PW_GRID| Volume element (a.u.^3)  0.4958         Volume (a.u.^3)     15865.4502
 PW_GRID| Grid span                                                    FULLSPACE
 PW_GRID|   Distribution                         Average         Max         Min
 PW_GRID|   G-Vectors                              133.3        3360           0
 PW_GRID|   G-Rays                                   6.7         168           0
 PW_GRID|   Real Space Points                      133.3         160          80

 POISSON| Solver                                                        PERIODIC
 POISSON| Periodicity                                                        XYZ

 RS_GRID| Information for grid number                                          1
 RS_GRID|   Bounds   1            -49      49                Points:          99
 RS_GRID|   Bounds   2            -49      49                Points:          99
 RS_GRID|   Bounds   3           -210     209                Points:         420
 RS_GRID| Real space distribution over                                  8 groups
 RS_GRID| Real space distribution along direction                              2
 RS_GRID| Border size                                                         29
 RS_GRID| Real space distribution over                                 30 groups
 RS_GRID| Real space distribution along direction                              3
 RS_GRID| Border size                                                         29
 RS_GRID|   Distribution                         Average         Max         Min
 RS_GRID|   Planes                                  70.4          71          70
 RS_GRID|   Distribution                         Average         Max         Min
 RS_GRID|   Planes                                  72.0          72          72

 RS_GRID| Information for grid number                                          2
 RS_GRID|   Bounds   1            -30      29                Points:          60
 RS_GRID|   Bounds   2            -30      29                Points:          60
 RS_GRID|   Bounds   3           -120     119                Points:         240
 RS_GRID| Real space distribution over                                  8 groups
 RS_GRID| Real space distribution along direction                              2
 RS_GRID| Border size                                                         22
 RS_GRID| Real space distribution over                                 30 groups
 RS_GRID| Real space distribution along direction                              3
 RS_GRID| Border size                                                         22
 RS_GRID|   Distribution                         Average         Max         Min
 RS_GRID|   Planes                                  51.5          52          51
 RS_GRID|   Distribution                         Average         Max         Min
 RS_GRID|   Planes                                  52.0          52          52

 RS_GRID| Information for grid number                                          3
 RS_GRID|   Bounds   1            -16      16                Points:          33
 RS_GRID|   Bounds   2            -16      16                Points:          33
 RS_GRID|   Bounds   3            -70      69                Points:         140
 RS_GRID| Real space fully replicated
 RS_GRID| Group size                                                           1

 RS_GRID| Information for grid number                                          4
 RS_GRID|   Bounds   1            -10       9                Points:          20
 RS_GRID|   Bounds   2            -10       9                Points:          20
 RS_GRID|   Bounds   3            -40      39                Points:          80
 RS_GRID| Real space fully replicated
 RS_GRID| Group size                                                           1

 KPOINTS| Number of kpoint groups                                              1
 KPOINTS| Size of each kpoint group                                          240
 KPOINTS| Number of kpoints per group                                          4

 BFGS| Use rational function optimization for step estimation:                NO
 BFGS| Use model Hessian for initial guess:                                  YES
 BFGS| Restart Hessian:                                                       NO
 BFGS| Trust radius:                                                       0.472

 *******************************************************************************
 ***                     STARTING GEOMETRY OPTIMIZATION                      ***
 ***                                   BFGS                                  ***
 *******************************************************************************

 Number of electrons:                                                       1184
 Number of occupied orbitals:                                                592
 Number of molecular orbitals:                                               692

 Number of orbital functions:                                               1060
 Number of independent orbital functions:                                   1060

 Extrapolation method: initial_guess

 Atomic guess: The first density matrix is obtained in terms of atomic orbitals
               and electronic configurations assigned to each atomic kind

 Guess for atomic kind: Au

 Electronic structure
    Total number of core electrons                                         68.00
    Total number of valence electrons                                      11.00
    Total number of electrons                                              79.00
    Multiplicity                                                   not specified
    S   [  2.00  2.00  2.00  2.00  2.00] 1.00
    P   [  6.00  6.00  6.00  6.00]
    D   [ 10.00 10.00]10.00
    F   [ 14.00]


 *******************************************************************************
                  Iteration          Convergence                     Energy [au]
 *******************************************************************************
                          1         0.00000                     -33.033218197848

 Energy components [Hartree]           Total Energy ::          -33.033218197848
                                        Band Energy ::           -1.147505983145
                                     Kinetic Energy ::           24.744064437587
                                   Potential Energy ::          -57.777282635435
                                      Virial (-V/T) ::            2.334995642336
                                        Core Energy ::          -60.197309615488
                                          XC Energy ::           -5.116883226844
                                     Coulomb Energy ::           32.280974644483
                       Total Pseudopotential Energy ::          -85.042885173964
                       Local Pseudopotential Energy ::          -66.341694915099
                    Nonlocal Pseudopotential Energy ::          -18.701190258865
                                        Confinement ::            1.015111208892

 Orbital energies  State     L     Occupation   Energy[a.u.]          Energy[eV]

                       1     0          1.000      -0.213792           -5.817572

                       1     2         10.000      -0.093371           -2.540765


 Total Electron Density at R=0:                                         0.000035

 Guess for atomic kind: S

 Electronic structure
    Total number of core electrons                                         10.00
    Total number of valence electrons                                       6.00
    Total number of electrons                                              16.00
    Multiplicity                                                   not specified
    S   [  2.00  2.00] 2.00
    P   [  6.00] 4.00


 *******************************************************************************
                  Iteration          Convergence                     Energy [au]
 *******************************************************************************
                          1        0.660537E-01                  -9.999037742061
                          2        0.355079E-01                  -9.999866133925
                          3        0.643643E-04                 -10.000216348790
                          4        0.796885E-07                 -10.000216349869

 Energy components [Hartree]           Total Energy ::          -10.000216349869
                                        Band Energy ::           -2.121494693893
                                     Kinetic Energy ::            3.789396533726
                                   Potential Energy ::          -13.789612883596
                                      Virial (-V/T) ::            3.638999709021
                                        Core Energy ::          -16.443520246889
                                          XC Energy ::           -2.069152856162
                                     Coulomb Energy ::            8.512456753182
                       Total Pseudopotential Energy ::          -20.288997453216
                       Local Pseudopotential Energy ::          -22.511640900540
                    Nonlocal Pseudopotential Energy ::            2.222643447324
                                        Confinement ::            0.560806726004

 Orbital energies  State     L     Occupation   Energy[a.u.]          Energy[eV]

                       1     0          2.000      -0.602923          -16.406376

                       1     1          4.000      -0.228912           -6.229013


 Total Electron Density at R=0:                                         0.000007

 Guess for atomic kind: C

 Electronic structure
    Total number of core electrons                                          2.00
    Total number of valence electrons                                       4.00
    Total number of electrons                                               6.00
    Multiplicity                                                   not specified
    S   [  2.00] 2.00
    P      2.00


 *******************************************************************************
                  Iteration          Convergence                     Energy [au]
 *******************************************************************************
                          1        0.186766E-01                  -5.268668754005
                          2        0.653829E-02                  -5.268804464977
                          3        0.876072E-04                  -5.268823127995
                          4        0.591072E-08                  -5.268823131348

 Energy components [Hartree]           Total Energy ::           -5.268823131348
                                        Band Energy ::           -1.059831606115
                                     Kinetic Energy ::            3.570408314829
                                   Potential Energy ::           -8.839231446178
                                      Virial (-V/T) ::            2.475692040449
                                        Core Energy ::           -8.468185581767
                                          XC Energy ::           -1.456932885419
                                     Coulomb Energy ::            4.656295335838
                       Total Pseudopotential Energy ::          -12.068029384961
                       Local Pseudopotential Energy ::          -12.916317339773
                    Nonlocal Pseudopotential Energy ::            0.848287954812
                                        Confinement ::            0.294354883653

 Orbital energies  State     L     Occupation   Energy[a.u.]          Energy[eV]

                       1     0          2.000      -0.408420          -11.113669

                       1     1          2.000      -0.121496           -3.306073


 Total Electron Density at R=0:                                         0.001169

 Guess for atomic kind: H

 Electronic structure
    Total number of core electrons                                          0.00
    Total number of valence electrons                                       1.00
    Total number of electrons                                               1.00
    Multiplicity                                                   not specified
    S      1.00


 *******************************************************************************
                  Iteration          Convergence                     Energy [au]
 *******************************************************************************
                          1        0.250941E-02                  -0.375252439250
                          2        0.570686E-04                  -0.375254289096
                          3        0.832215E-09                  -0.375254290053

 Energy components [Hartree]           Total Energy ::           -0.375254290053
                                        Band Energy ::           -0.076313317586
                                     Kinetic Energy ::            0.771359175731
                                   Potential Energy ::           -1.146613465784
                                      Virial (-V/T) ::            1.486484509239
                                        Core Energy ::           -0.456086259369
                                          XC Energy ::           -0.314218638424
                                     Coulomb Energy ::            0.395050607740
                       Total Pseudopotential Energy ::           -1.238480442282
                       Local Pseudopotential Energy ::           -1.238480442282
                    Nonlocal Pseudopotential Energy ::            0.000000000000
                                        Confinement ::            0.110350071812

 Orbital energies  State     L     Occupation   Energy[a.u.]          Energy[eV]

                       1     0          1.000      -0.076313           -2.076591


 Total Electron Density at R=0:                                         0.425028
 Re-scaling the density matrix to get the right number of electrons
                  # Electrons              Trace(P)               Scaling factor
                         1184              1184.000                        1.000


 SCF WAVEFUNCTION OPTIMIZATION

  Step     Update method      Time    Convergence         Total energy    Change
  ------------------------------------------------------------------------------
     1 NoMix/Diag. 0.30E+00    1.2     0.91954750     -3519.4044178780 -3.52E+03
     2 Broy./Diag. 0.30E+00    1.4     0.21539857     -3596.1834583880 -7.68E+01
     3 Broy./Diag. 0.30E+00    1.3     0.19470796     -3558.7981761031  3.74E+01
     4 Broy./Diag. 0.30E+00    1.4     0.12180139     -3535.4437331008  2.34E+01
     5 Broy./Diag. 0.30E+00    1.3     0.01814915     -3519.8605833111  1.56E+01
     6 Broy./Diag. 0.30E+00    1.2     0.00975115     -3518.4797032214  1.38E+00
     7 Broy./Diag. 0.30E+00    1.3     0.00427684     -3518.1243822411  3.55E-01
     8 Broy./Diag. 0.30E+00    1.3     0.00422354     -3518.2607472858 -1.36E-01
     9 Broy./Diag. 0.30E+00    1.3     0.00323877     -3518.3325866767 -7.18E-02
    10 Broy./Diag. 0.30E+00    1.3     0.00081577     -3518.3643298960 -3.17E-02
    11 Broy./Diag. 0.30E+00    1.2     0.00062867     -3518.3641292302  2.01E-04
    12 Broy./Diag. 0.30E+00    1.3     0.00053703     -3518.3464504973  1.77E-02
    13 Broy./Diag. 0.30E+00    1.3     0.00031805     -3518.3259510818  2.05E-02
    14 Broy./Diag. 0.30E+00    1.3     0.00019258     -3518.3189857655  6.97E-03
    15 Broy./Diag. 0.30E+00    1.3     0.00009868     -3518.3149168222  4.07E-03
    16 Broy./Diag. 0.30E+00    1.3     0.00007503     -3518.3131525427  1.76E-03
    17 Broy./Diag. 0.30E+00    1.3     0.00002423     -3518.3110731263  2.08E-03
    18 Broy./Diag. 0.30E+00    1.2     0.00001516     -3518.3101540760  9.19E-04
    19 Broy./Diag. 0.30E+00    1.3     0.00001496     -3518.3096896835  4.64E-04
    20 Broy./Diag. 0.30E+00    1.2     0.00001198     -3518.3095769435  1.13E-04
    21 Broy./Diag. 0.30E+00    1.2     0.00000740     -3518.3096486093 -7.17E-05
    22 Broy./Diag. 0.30E+00    1.3     0.00000238     -3518.3096873998 -3.88E-05
    23 Broy./Diag. 0.30E+00    1.2     0.00000113     -3518.3097223238 -3.49E-05
    24 Broy./Diag. 0.30E+00    1.4     0.00000051     -3518.3097109592  1.14E-05
    25 Broy./Diag. 0.30E+00    1.4     0.00000049     -3518.3097015402  9.42E-06
    26 Broy./Diag. 0.30E+00    1.2     0.00000014     -3518.3096896095  1.19E-05
    27 Broy./Diag. 0.30E+00    1.3     0.00000011     -3518.3096857092  3.90E-06
    28 Broy./Diag. 0.30E+00    1.3     0.00000006     -3518.3096829753  2.73E-06

  *** SCF run converged in    28 steps ***


  Electronic density on regular grids:      -1183.9999999827        0.0000000173
  Core density on regular grids:             1183.9999998085       -0.0000001915
  Total charge density on r-space grids:       -0.0000001742
  Total charge density g-space grids:          -0.0000001742

  Overlap energy of the core charge distribution:               0.00001350102976
  Self energy of the core charge distribution:              -6148.38221378166963
  Core Hamiltonian energy:                                   1945.22526774418179
  Hartree energy:                                            1240.96571520386692
  Exchange-correlation energy:                               -556.11425388653902
  Electronic entropic energy:                                  -0.00421175567851
  Fermi energy:                                                 0.25095155474262

  Total energy:                                             -3518.30968297527352

 The electron density is written in cube file format to the file:

 dft_wfn-ELECTRON_DENSITY-1_0.cube

 !-----------------------------------------------------------------------------!
                     Mulliken Population Analysis

 #  Atom  Element  Kind  Atomic population                           Net charge
       1     Au       1         10.999156                              0.000844
       2     Au       1         10.999155                              0.000845
       3     Au       1         11.003452                             -0.003452
       4     Au       1         10.997825                              0.002175
       5     Au       1         11.004366                             -0.004366
       6     Au       1         11.004365                             -0.004365
       7     Au       1         11.003447                             -0.003447
       8     Au       1         10.997810                              0.002190
       9     Au       1         10.996611                              0.003389
      10     Au       1         11.000673                             -0.000673
      11     Au       1         10.999038                              0.000962
      12     Au       1         10.999041                              0.000959
      13     Au       1         11.000797                             -0.000797
      14     Au       1         10.995896                              0.004104
      15     Au       1         10.999033                              0.000967
      16     Au       1         10.999036                              0.000964
      17     Au       1         10.995644                              0.004356
      18     Au       1         10.995643                              0.004357
      19     Au       1         11.000659                             -0.000659
      20     Au       1         10.995510                              0.004490
      21     Au       1         11.000453                             -0.000453
      22     Au       1         11.000443                             -0.000443
      23     Au       1         11.000679                             -0.000679
      24     Au       1         10.995463                              0.004537
      25     Au       1         10.994801                              0.005199
      26     Au       1         11.002351                             -0.002351
      27     Au       1         10.993919                              0.006081
      28     Au       1         10.993967                              0.006033
      29     Au       1         11.003263                             -0.003263
      30     Au       1         10.994155                              0.005845
      31     Au       1         10.993940                              0.006060
      32     Au       1         10.993989                              0.006011
      33     Au       1         10.980783                              0.019217
      34     Au       1         10.980733                              0.019267
      35     Au       1         10.985180                              0.014820
      36     Au       1         10.982390                              0.017610
      37     Au       1         10.984245                              0.015755
      38     Au       1         10.984193                              0.015807
      39     Au       1         10.985178                              0.014822
      40     Au       1         10.982367                              0.017633
      41     Au       1         10.976538                              0.023462
      42     Au       1         10.970011                              0.029989
      43     Au       1         10.953954                              0.046046
      44     Au       1         10.953909                              0.046091
      45     Au       1         10.933267                              0.066733
      46     Au       1         10.980719                              0.019281
      47     Au       1         10.953937                              0.046063
      48     Au       1         10.953891                              0.046109
      49     Au       1         11.097422                             -0.097422
      50     Au       1         11.098025                             -0.098025
      51     Au       1         11.098903                             -0.098903
      52     Au       1         11.091770                             -0.091770
      53     Au       1         11.075222                             -0.075222
      54     Au       1         11.075726                             -0.075726
      55     Au       1         11.099034                             -0.099034
      56     Au       1         11.091791                             -0.091791
      57     S        2          5.803638                              0.196362
      58     C        3          4.087800                             -0.087800
      59     H        4          0.924313                              0.075687
      60     H        4          0.924546                              0.075454
      61     C        3          4.020306                             -0.020306
      62     C        3          4.020381                             -0.020381
      63     C        3          4.020447                             -0.020447
[...]
     55       Au     1      11.000         10.984                         0.016
     56       Au     1      11.000         11.026                        -0.026
     57       S      2       6.000          6.016                        -0.016
     58       C      3       4.000          4.024                        -0.024
     59       H      4       1.000          0.953                         0.047
     60       H      4       1.000          0.953                         0.047
     61       C      3       4.000          4.050                        -0.050
     62       C      3       4.000          4.050                        -0.050
     63       C      3       4.000          4.049                        -0.049
     64       C      3       4.000          4.049                        -0.049
     65       H      4       1.000          0.952                         0.048
     66       H      4       1.000          0.952                         0.048
     67       C      3       4.000          4.024                        -0.024
     68       S      2       6.000          6.018                        -0.018
     69       Au     1      11.000         11.030                        -0.030
     70       Au     1      11.000         11.030                        -0.030
     71       Au     1      11.000         10.985                         0.015
     72       Au     1      11.000         11.027                        -0.027
     73       Au     1      11.000         10.987                         0.013
     74       Au     1      11.000         10.988                         0.012
     75       Au     1      11.000         10.986                         0.014
     76       Au     1      11.000         11.025                        -0.025
     77       Au     1      11.000         10.979                         0.021
     78       Au     1      11.000         10.988                         0.012
     79       Au     1      11.000         10.993                         0.007
     80       Au     1      11.000         10.992                         0.008
     81       Au     1      11.000         10.998                         0.002
     82       Au     1      11.000         10.977                         0.023
     83       Au     1      11.000         10.993                         0.007
     84       Au     1      11.000         10.992                         0.008
     85       Au     1      11.000         10.996                         0.004
     86       Au     1      11.000         10.996                         0.004
     87       Au     1      11.000         10.999                         0.001
     88       Au     1      11.000         10.996                         0.004
     89       Au     1      11.000         10.999                         0.001
     90       Au     1      11.000         10.999                         0.001
     91       Au     1      11.000         10.999                         0.001
     92       Au     1      11.000         10.996                         0.004
     93       Au     1      11.000         11.000                         0.000
     94       Au     1      11.000         11.001                        -0.001
     95       Au     1      11.000         11.003                        -0.003
     96       Au     1      11.000         11.003                        -0.003
     97       Au     1      11.000         11.000                        -0.000
     98       Au     1      11.000         10.999                         0.001
     99       Au     1      11.000         11.003                        -0.003
    100       Au     1      11.000         11.003                        -0.003
    101       Au     1      11.000         10.999                         0.001
    102       Au     1      11.000         11.000                         0.000
    103       Au     1      11.000         10.998                         0.002
    104       Au     1      11.000         10.999                         0.001
    105       Au     1      11.000         10.998                         0.002
    106       Au     1      11.000         10.998                         0.002
    107       Au     1      11.000         10.998                         0.002
    108       Au     1      11.000         10.999                         0.001
    109       Au     1      11.000         10.998                         0.002
    110       Au     1      11.000         10.998                         0.002
    111       Au     1      11.000         11.001                        -0.001
    112       Au     1      11.000         11.001                        -0.001
    113       Au     1      11.000         10.999                         0.001
    114       Au     1      11.000         10.997                         0.003
    115       Au     1      11.000         11.001                        -0.001
    116       Au     1      11.000         11.001                        -0.001

  Total Charge                                                           -0.000
 !-----------------------------------------------------------------------------!

 ENERGY| Total FORCE_EVAL ( QS ) energy [a.u.]:            -3518.342722236963709

 -------------------------------------------------------------------------------
 -                                                                             -
 -                                DBCSR STATISTICS                             -
 -                                                                             -
 -------------------------------------------------------------------------------
 COUNTER                                    TOTAL       BLAS       SMM       ACC
 flops inhomo. stacks                           0       0.0%      0.0%      0.0%
 flops total                         0.000000E+00       0.0%      0.0%      0.0%
 flops max/rank                      0.000000E+00       0.0%      0.0%      0.0%
 matmuls inhomo. stacks                         0       0.0%      0.0%      0.0%
 matmuls total                                  0       0.0%      0.0%      0.0%
 number of processed stacks                     0       0.0%      0.0%      0.0%
 average stack size                                     0.0       0.0       0.0
 marketing flops                     0.000000E+00
 -------------------------------------------------------------------------------
 -                                                                             -
 -                      DBCSR MESSAGE PASSING PERFORMANCE                      -
 -                                                                             -
 -------------------------------------------------------------------------------
 ROUTINE             CALLS      AVE VOLUME [Bytes]
 MP_Bcast                1                     12.
 MP_Allreduce        33752                      8.
 MP_Alltoall        119008                 172584.
 -------------------------------------------------------------------------------

 -------------------------------------------------------------------------------
 -                                                                             -
 -                                DBM STATISTICS                               -
 -                                                                             -
 -------------------------------------------------------------------------------
    M  x    N  x    K                                          COUNT     PERCENT
 -------------------------------------------------------------------------------

 -------------------------------------------------------------------------------
 -                                                                             -
 -                                GRID STATISTICS                              -
 -                                                                             -
 -------------------------------------------------------------------------------
 LP    KERNEL             BACKEND                              COUNT     PERCENT
 4     collocate ortho    REF                               33459550      44.37%
 4     integrate ortho    REF                               32390506      42.96%
 0     collocate general  REF                                2756160       3.66%
 0     integrate general  REF                                2449920       3.25%
 3     collocate ortho    REF                                1420551       1.88%
 3     integrate ortho    REF                                1377340       1.83%
 5     integrate ortho    REF                                1010904       1.34%
 1     integrate general  REF                                 278400       0.37%
 2     collocate ortho    REF                                 132342       0.18%
 2     integrate ortho    REF                                 127944       0.17%
 -------------------------------------------------------------------------------

 MEMORY| Estimated peak process memory [MiB]                                1988

 -------------------------------------------------------------------------------
 ----                             MULTIGRID INFO                            ----
 -------------------------------------------------------------------------------
 count for grid        1:        1724610          cutoff [a.u.]          200.00
 count for grid        2:        2579962          cutoff [a.u.]           66.67
 count for grid        3:        1473361          cutoff [a.u.]           22.22
 count for grid        4:         857698          cutoff [a.u.]            7.41
 total gridlevel count  :        6635631

 -------------------------------------------------------------------------------
 -                                                                             -
 -                         MESSAGE PASSING PERFORMANCE                         -
 -                                                                             -
 -------------------------------------------------------------------------------

 ROUTINE             CALLS      AVE VOLUME [Bytes]
 MP_Group                5
 MP_Bcast            47041                  13822.
 MP_Allreduce        21226                    471.
 MP_Sync              3990
 MP_Alltoall          6095
 MP_ISendRecv       315958                   4000.
 MP_Wait            431678
 MP_comm_split          10
 MP_ISend           163949                  25468.
 MP_IRecv           164047                  25454.
 MP_Recv             37263                 270345.
 MP_Write_All           22                  33180.
 -------------------------------------------------------------------------------


 -------------------------------------------------------------------------------
 -                                                                             -
 -                           R E F E R E N C E S                               -
 -                                                                             -
 -------------------------------------------------------------------------------
 
 CP2K version 2022.1 (Development Version), the CP2K developers group (2022).
 CP2K is freely available from https://www.cp2k.org/ .

 Kuehne,Thomas D.; Iannuzzi,Marcella; Del Ben,Mauro;
 Rybkin,Vladimir V.; Seewald,Patrick; Stein,Frederick; Laino,Teodoro;
 Khaliullin,Rustam Z.; Schuett,Ole; Schiffmann,Florian; Golze,Dorothea;
 Wilhelm,Jan; Chulkov,Sergey; Bani-Hashemian,Mohammad Hossein;
 Weber,Valery; Borstnik,Urban; Taillefumier,Mathieu;
 Jakobovits,Alice Shoshana; Lazzaro,Alfio; Pabst,Hans; Mueller,Tiziano;
 Schade,Robert; Guidon,Manuel; Andermatt,Samuel; Holmberg,Nico;
 Schenter,Gregory K.; Hehn,Anna; Bussy,Augustin; Belleflamme,Fabian;
 Tabacchi,Gloria; Gloess,Andreas; Lass,Michael; Bethune,Iain;
 Mundy,Christopher J.; Plessl,Christian; Watkins,Matt;
 VandeVondele,Joost; Krack,Matthias; Hutter,Juerg. 
 The Journal of Chemical Physics, 152 (19), (2020). 
 CP2K: An electronic structure and molecular dynamics software package -
 Quickstep: Efficient and accurate electronic structure calculations.
 https://doi.org/10.1063/5.0007045

 Togo, Atsushi; Tanaka, Isao. arXiv, 1808.01590 (2018). 
 Spglib : a software library for crystal symmetry search.
 https://doi.org/xxx

 Schuett, Ole; Messmer, Peter; Hutter, Juerg; VandeVondele, Joost. 
 Electronic Structure Calculations on Graphics Processing Units, John
 Wiley & Sons, Ltd, 173-190 (2016). 
 GPU-Accelerated Sparse Matrix-Matrix Multiplication for
 Linear Scaling Density Functional Theory.
 https://doi.org/10.1002/9781118670712.ch8

 Heinecke, A; Henry, G; Hutchinson, M; Pabst, H. 
 Proceedings of Intl. Supercomputing Conference, 981-991 (2016). 
 LIBXSMM: Accelerating Small Matrix Multiplications
 by Runtime Code Generation.
 https://doi.org/10.1109/SC.2016.83

 Borstnik, U; VandeVondele, J; Weber, V; Hutter, J. 
 PARALLEL COMPUTING, 40 (5-6), 47-58 (2014). 
 Sparse matrix multiplication: The distributed block-compressed sparse
 row library.
 https://doi.org/10.1016/j.parco.2014.03.012

 Hutter, J; Iannuzzi, M; Schiffmann, F; VandeVondele, J. 
 WIREs Comput Mol Sci., 4 (1), 15-25 (2014). 
 CP2K: atomistic simulations of condensed matter systems.
 https://doi.org/10.1002/wcms.1159

 VandeVondele, J; Hutter, J. 
 JOURNAL OF CHEMICAL PHYSICS, 127 (11), 114105 (2007). 
 Gaussian basis sets for accurate calculations on molecular systems in
 gas and condensed phases.
 https://doi.org/10.1063/1.2770708

 Krack, M. 
 THEORETICAL CHEMISTRY ACCOUNTS, 114 (1-3), 145-152 (2005). 
 Pseudopotentials for H to Kr optimized for gradient-corrected
 exchange-correlation functionals.
 https://doi.org/10.1007/s00214-005-0655-y

 VandeVondele, J; Krack, M; Mohamed, F; Parrinello, M; Chassaing, T;
 Hutter, J. COMPUTER PHYSICS COMMUNICATIONS, 167 (2), 103-128 (2005). 
 QUICKSTEP: Fast and accurate density functional calculations using a
 mixed Gaussian and plane waves approach.
 https://doi.org/10.1016/j.cpc.2004.12.014

 Frigo, M; Johnson, SG. 
 PROCEEDINGS OF THE IEEE, 93 (2), 216-231 (2005). 
 The design and implementation of FFTW3.
 https://doi.org/10.1109/JPROC.2004.840301

 Hartwigsen, C; Goedecker, S; Hutter, J. 
 PHYSICAL REVIEW B, 58 (7), 3641-3662 (1998). 
 Relativistic separable dual-space Gaussian pseudopotentials from H to Rn.
 https://doi.org/10.1103/PhysRevB.58.3641

 Lippert, G; Hutter, J; Parrinello, M. 
 MOLECULAR PHYSICS, 92 (3), 477-487 (1997). 
 A hybrid Gaussian and plane wave density functional scheme.
 https://doi.org/10.1080/002689797170220

 Goedecker, S; Teter, M; Hutter, J. 
 PHYSICAL REVIEW B, 54 (3), 1703-1710 (1996). 
 Separable dual-space Gaussian pseudopotentials.
 https://doi.org/10.1103/PhysRevB.54.1703


 -------------------------------------------------------------------------------
 -                                                                             -
 -                                T I M I N G                                  -
 -                                                                             -
 -------------------------------------------------------------------------------
 SUBROUTINE                       CALLS  ASD         SELF TIME        TOTAL TIME
                                MAXIMUM       AVERAGE  MAXIMUM  AVERAGE  MAXIMUM
 CP2K                                 1  1.0    0.110    0.166  482.628  482.633
 cp_geo_opt                           1  2.0    0.004    0.004  482.280  482.283
 geoopt_bfgs                          1  3.0    0.005    0.176  482.276  482.280
 cp_eval_at                          11  4.0    0.001    0.002  479.603  479.610
 qs_energies                         11  5.9    0.002    0.002  476.593  476.599
 scf_env_do_scf                      11  6.9    0.001    0.002  459.263  460.005
 scf_env_do_scf_inner_loop          320  7.9    0.033    3.351  459.262  460.002
 qs_forces                           10  5.0    0.002    0.002  432.168  432.170
 qs_scf_new_mos_kp                  320  8.9    0.002    0.003  371.719  371.752
 do_general_diag_kp                 320  9.9    0.043    0.054  371.716  371.750
 cp_cfm_geeig                      1280 10.9    0.014    0.019  309.173  309.299
 cp_cfm_heevd                      1280 11.9  269.210  269.773  269.210  269.773
 rs_pw_transfer                    2687 13.3    0.028    0.040   40.950   42.396
 copy_dbcsr_to_fm                  6244 10.7    0.065    0.084   39.237   40.773
 dbcsr_desymmetrize_deep          11364 11.4    0.246    0.291   34.940   36.614
 qs_ks_update_qs_env                320  8.9    0.002    0.003   34.679   34.716
 rebuild_ks_matrix                  330  9.8    0.001    0.002   31.376   31.400
 qs_ks_build_kohn_sham_matrix       330 10.8    0.050    0.056   31.374   31.399
 mp_waitany                       83258 15.3   25.222   29.817   25.222   29.817
 sum_up_and_integrate               330 11.8    0.013    0.020   29.320   29.413
 integrate_v_rspace                 330 12.8    0.008    0.010   29.307   29.404
 qs_rho_update_rho_low              331  8.9    0.002    0.002   27.562   27.591
 calculate_rho_elec                 331  9.9    0.027    0.031   27.561   27.589
 mp_alltoall_i22                  20248 12.7   23.003   26.419   23.003   26.419
 potential_pw2rs                    330 13.8    0.009    0.011   24.937   25.034
 write_kpoints_restart              320  8.9    0.019    2.616   23.297   24.722
 density_rs2pw                      331 10.9    0.009    0.015   19.932   21.268
 mp_alltoall_d11v                 61415 13.2   16.692   19.615   16.692   19.615
 cp_fm_write_unformatted           1133  9.9    1.150   16.838    2.208   18.429
 dbcsr_complete_redistribute       8884 12.1    0.494    0.650   18.039   18.355
 cp_cfm_triangular_multiply        3840 11.9   17.530   18.228   17.530   18.228
 mp_send_dv                        1133 10.9    1.051   16.496    1.051   16.496
 cp_cfm_cholesky_decompose         1280 11.9   14.865   15.462   14.865   15.462
 cp_fm_start_copy_general          7760 11.2    0.466    0.630   14.467   14.890
 rs_pw_transfer_PW2RS_70            330 15.8    0.293    0.403   10.749   14.726
 kpoint_density_matrices            330 10.8    0.083    0.088   14.285   14.431
 cp_gemm                           5290 11.8    0.005    0.006   14.202   14.350
 cp_gemm_fm_gemm                   5290 12.8    0.005    0.006   14.197   14.346
 cp_fm_gemm                        5290 13.8   14.193   14.341   14.193   14.341
 scf_post_calculation_gpw            11  6.9    0.000    0.001   14.283   14.291
 write_available_results             11  7.9    0.000    0.000   14.282   14.290
 write_mo_free_results               11  8.9    6.529    6.547   14.282   14.289
 mp_allgather_i                   15520 12.2   13.311   13.918   13.311   13.918
 mp_alltoall_i11v                 38016 12.8   12.136   13.738   12.136   13.738
 mp_isend_dm3                     17702 15.3    3.882   11.800    3.882   11.800
 rs_pw_transfer_RS2PW_200           353 12.8    1.065    1.594   10.097   11.397
 rs_pw_transfer_PW2RS_200           351 15.6    1.254    1.900    5.455   10.009
 -------------------------------------------------------------------------------

 The number of warnings for this run is : 0
 
 -------------------------------------------------------------------------------
  **** **** ******  **  PROGRAM ENDED AT                 2023-02-22 11:09:55.596
 ***** ** ***  *** **   PROGRAM RAN ON                     cn1098.scarf.rl.ac.uk
 **    ****   ******    PROGRAM RAN BY                                 scarf1157
 ***** **    ** ** **   PROGRAM PROCESS ID                                 35351
  **** **  *******  **  PROGRAM STOPPED IN /work4/scd/scarf1157/work/testing/cp2
                                           k-smeagol/bdt/cp2k/hollow-site/transp
                                           ort-cp2k/5-4/geometry-ordered/3x3-4/s
                                           z/bulk_layers-4/geo_opt/dzvp/Au-S-2.5
                                           5_dft
