ATOMS
H             0.00000000      0.00000000     -0.00998254            -0.00138428      0.70710543     -0.00001733
H             0.00000000      0.00000000      0.73998166             0.00138428     -0.70710543      0.00001733
