ATOMS
H             0.00000000      0.00000000     -0.00998254             0.70710542      0.00138428      0.00009228
H             0.00000000      0.00000000      0.73998166            -0.70710542     -0.00138428     -0.00009228
