SIESTA 1.3.7  -- [1.3f1 release] (04 Feb 2004)
Architecture  : 
Compiler flags:  -O3
PARALLEL version

* Running on    4 nodes in parallel
>> Start of run:   4-OCT-2013  18:34:30

                           ***********************       
                           *  WELCOME TO SIESTA  *       
                           ***********************       

reinit: Reading from standard input
************************** Dump of input data file ****************************
#
SystemName                   mol            # Descriptive name of the system
SystemLabel                  mol            # Short name for naming files
NumberOfSpecies              1             # Number of species
NumberOfAtoms                2           # Number of atoms
%block ChemicalSpeciesLabel
 1    1   H
%endblock ChemicalSpeciesLabel
# ps
%block Ps.lmax
  H     3
%endblock Ps.lmax
# Basis
PAO.BasisType                split         # Type of basis ('nones', 'nonodes', 'split')
PAO.SplitNorm  0.15
%block PAO.Basis                           # basis
H     2      0.00
 n=1    0    2   E      2.07      0.50
   5.75  1.5
   1.000   1.000
 n=2    1    1   E      0.89      0.01
   5.500
   1.000
%endblock PAO.Basis
# lattice vectors
LatticeConstant              1.0 Ang
%block LatticeVectors
         20.00000        0.00000000       0.00000000
         0.00000        20.0000000        0.00000000
         0.00000000      0.00000000      20.0000
%endblock LatticeVectors
# coordinates
AtomicCoordinatesFormat      Ang
%block AtomicCoordinatesAndAtomicSpecies
    0.00000000    0.00000000   -0.00998254   1  H          1
    0.00000000    0.00000000    0.73998166   1  H          2
%endblock AtomicCoordinatesAndAtomicSpecies
# constrains in relaxation
#%block GeometryConstraints
#   position   from  1 to  54
#   position   from  -1 to  -45
#%endblock GeometryConstraints
# real space mesh grid
MeshCutoff                   800.0 Ry
%block GridCellSampling
  0.5  0.5   0.0
  0.5  0.0   0.5
  0.0  0.5   0.5
%endblock GridCellSampling
# reciprocal space
%block kgrid_Monkhorst_Pack
  1   0   0    0.0
  0   1   0    0.0
  0   0   1    0.0
%endblock kgrid_Monkhorst_Pack
#ProcessorY                   4
#BlockSize                    100
%block ExternalElectricField
   0.000 0.000 0.065 V/Ang
%endblock ExternalElectricField
# functional
xc.functional                GGA           # 'LDA', 'GGA'
xc.authors                   PBE           # 'CA'='PZ', 'PW92', 'PBE'
# scf
MaxSCFIterations             300
DM.MixingWeight              0.02
DM.Tolerance                 2.0E-5
DM.UseSaveDM                 T
DM.NumberPulay               6             # Pulay convergency accelerator
SolutionMethod               diagon
ElectronicTemperature        300 K         # Default value
# MD options
MD.TypeOfRun                 cg            # Type of dynamics:
MD.VariableCell              false         # if vary cell
MD.NumCGsteps                300             # Number of CG steps for relaxation
MD.MaxCGDispl                0.08 Ang     # Maximum atomic displacement at one step
MD.MaxForceTol               0.01 eV/Ang   # Tolerance in the maximum force min(fx, fy, fz)
MD.MaxStressTol              0.1 Gpa
MD.FCDispl                 0.02 ang
MD.FCIR                    T
MD.FCEigenVectors          T
MD.FCRead                  F
MD.FCAtomRestart           46
MD.FCAxisRestart           1
MD.InitialTimeStep         1
MD.FinalTimeStep           10
MD.LengthTimeStep          1.0 fs
MD.InitialTemperature      100.0 K
MD.TargetTemperature       100.0 K
#MD.TargetPressure          3.0 Gpa
#Siesta Output Flags
SaveHS                       F           # Hamiltonian and overlap in sparse
SaveRHO                      F
WriteMullikenPop             1
WriteForces                  T
WriteCoorStep                T
SaveElectrostaticPotential   T             # Hartree Potential file
************************** End of input data file *****************************

reinit: -----------------------------------------------------------------------
reinit: System Name: mol                                                        
reinit: -----------------------------------------------------------------------
reinit: System Label: mol                 
reinit: -----------------------------------------------------------------------

initatom: Reading input for the pseudopotentials and atomic orbitals ----------
 Species number:            1  Label: H Atomic number:           1
Ground state valence configuration:   1s01
Reading pseudopotential information in formatted form from H.psf
relmxkb: Read Max KB Ang. Momentum=    3 for species H

<basis_specs>
===============================================================================
H                    Z=   1    Mass=  1.0100        Charge=  0.0000    
Lmxo=1 Lmxkb=3     BasisType=split      Semic=F
L=0  Nsemic=0  Cnfigmx=1
          n=1  nzeta=2  polorb=0
               vcte:    2.0700    
               rinn:   0.50000    
                rcs:    5.7500      1.5000    
            lambdas:    1.0000      1.0000    
L=1  Nsemic=0  Cnfigmx=2
          n=1  nzeta=1  polorb=0
               vcte:   0.89000    
               rinn:   0.10000E-01
                rcs:    5.5000    
            lambdas:    1.0000    
-------------------------------------------------------------------------------
L=0  Nkbl=1  erefs: 0.17977+309
L=1  Nkbl=1  erefs: 0.17977+309
L=2  Nkbl=1  erefs: 0.17977+309
L=3  Nkbl=1  erefs: 0.17977+309
===============================================================================
</basis_specs>

atom: Called for H   (Z =   1)

read_vps: Pseudopotential generation method:
read_vps: ATM3      Troullier-Martins                       

read_vps: Valence configuration (pseudopotential and basis set generation):
1s( 1.00) rc: 1.89
2p( 0.00) rc: 1.80
3d( 0.00) rc: 1.49
4f( 0.00) rc: 1.49
read_vps: Spin-orbit interaction is not included in this calculation
Total valence charge:    1.00000

xc_check: Exchange-correlation functional:
xc_check: GGA Perdew, Burke & Ernzerhof 1996
V l=0 = -2*Zval/r beyond r=  1.8658
V l=1 = -2*Zval/r beyond r=  1.7970
V l=2 = -2*Zval/r beyond r=  1.8196
V l=3 = -2*Zval/r beyond r=  1.8196
All V_l potentials equal beyond r=  1.8658
This should be close to max(r_c) in ps generation
All pots = -2*Zval/r beyond r=  1.8658

VLOCAL1: 99.0% of the norm of Vloc inside     12.470 Ry
VLOCAL1: 99.9% of the norm of Vloc inside     28.418 Ry
atom: Maximum radius for 4*pi*r*r*local-pseudopot. charge    2.16811
atom: Maximum radius for r*vlocal+2*Zval:    1.84256
GHOST: No ghost state for L =  0
GHOST: No ghost state for L =  1
GHOST: No ghost state for L =  2
GHOST: No ghost state for L =  3

KBgen: Kleinman-Bylander projectors: 
   l= 0   rc=  2.011274   el= -0.477200   Ekb= -1.572097   kbcos= -0.493163
   l= 1   rc=  2.141150   el=  0.001076   Ekb= -0.356432   kbcos= -0.050277
   l= 2   rc=  2.195416   el=  0.002010   Ekb= -0.177656   kbcos= -0.007774
   l= 3   rc=  2.251056   el=  0.003122   Ekb= -0.068270   kbcos= -0.002268

KBgen: Total number of  Kleinman-Bylander projectors:   16
atom: -------------------------------------------------------------------------

atom: SANKEY-TYPE ORBITALS:
atom: Selected multiple-zeta basis: split     

SPLIT: Orbitals with angular momentum L= 0

SPLIT: Basis orbitals for state 1s

   izeta = 1
                 lambda =    1.000000
                     rc =    5.752124
                 energy =   -0.469599
                kinetic =    0.919264
    potential(screened) =   -1.388863
       potential(ionic) =   -1.911599

   izeta = 2
                 rmatch =    1.527112
              splitnorm =    0.807394
                 energy =    2.126033
                kinetic =    5.261681
    potential(screened) =   -3.135649
       potential(ionic) =   -3.696632

SPLIT: Orbitals with angular momentum L= 1

SPLIT: Basis orbitals for state 2p

   izeta = 1
                 lambda =    1.000000
                     rc =    5.471469
                 energy =    0.371359
                kinetic =    0.737398
    potential(screened) =   -0.366040
       potential(ionic) =   -0.791603
atom: Total number of Sankey-type orbitals:  5

atm_pop: Valence configuration(local Pseudopot. screening):
 1s( 1.00)                                                            
 2p( 0.00)                                                            
Vna: chval, zval:    1.00000   1.00000

Vna:  Cut-off radius for the neutral-atom potential:   5.752124

atom: _________________________________________________________________________

prinput: Basis input ----------------------------------------------------------

PAO.BasisType split     

%block ChemicalSpeciesLabel
    1    1 H                       # Species index, atomic number, species label
%endblock ChemicalSpeciesLabel

%block PAO.Basis                 # Define Basis set
H           2                    # Species label, number of l-shells
 n=1   0   2                         # n, l, Nzeta 
   5.752      1.527   
   1.000      1.000   
 n=2   1   1                         # n, l, Nzeta 
   5.471   
   1.000   
%endblock PAO.Basis

prinput: ----------------------------------------------------------------------


siesta: ******************** Simulation parameters ****************************
siesta:
siesta: The following are some of the parameters of the simulation.
siesta: A complete list of the parameters used, including defect values,
siesta: can be found in file out.fdf
siesta:
coor:   Atomic-coordinates input format  =     Cartesian coordinates
coor:                                          (in Angstroms)
redata: Number of spin components        =     1
redata: SpinOrbit                        =     0
redata: Long output                      =     F
redata: Number of Atomic Species         =     1
redata: Charge density info will appear in .RHO file
redata: Write Mulliken Pop.              =     Atomic and Orbital charges
redata: Mesh Cutoff                      =   800.0000  Ry
redata: Net charge of the system         =     0.0000 |e|
redata: Max. number of SCF Iter          =   300
redata: One Pulay mixing every           =     6 iterations
redata: Mix DM in first SCF step ?       =     F
redata: Write Pulay info on disk?        =     F
redata: New DM Mixing Weight             =     0.0200
redata: No kicks to SCF
redata: DM Mixing Weight for Kicks       =     0.5000
redata: DM Tolerance for SCF             =     0.000020
redata: Use continuation files for DM    =     T
redata: Neglect nonoverlap interactions  =     F
redata: Method of Calculation            =     Diagonalization
redata: Divide and Conquer               =     F
redata: Electronic Temperature           =     0.0019  Ry
redata: Fix the spin of the system       =     F
redata: Dynamics option                  =     CG coord. optimization
redata: Variable cell                    =     F
redata: Use continuation files for CG    =     F
redata: Maximum number of CG moves       =   300
redata: Max atomic displ per move        =     0.1512  Bohr
redata: Force tolerance                  =     0.0004  Ry/Bohr
redata: ***********************************************************************

siesta: Atomic coordinates (Bohr) and species
siesta:      0.00000   0.00000  -0.01886  1        1
siesta:      0.00000   0.00000   1.39836  1        2

initatomlists: Number of atoms, orbitals, and projectors:      2    10    32

siesta: System type = molecule  
 Nodes, Orbitals           4          10
 blocksizedefault           2

* ProcessorY, Blocksize:    2   2

 Using EM.ParallelOverKNum =           1
 label:           1 H                              1 s      
 label:           2 H                              1 s      
 label:           3 H                              1 py     
 label:           4 H                              1 pz     
 label:           5 H                              1 px     
 label:           6 H                              2 s      
 label:           7 H                              2 s      
 label:           8 H                              2 py     
 label:           9 H                              2 pz     
 label:          10 H                              2 px     
 
* Maximum dynamic memory allocated =     1 MB

siesta:                 ==============================
                            Begin CG move =      0
                        ==============================

outcoor: Atomic coordinates (Ang):                          
    0.00000000    0.00000000   -0.00998254   1  H          1
    0.00000000    0.00000000    0.73998166   1  H          2

read_ldau The LDA+U method used is from Czyzky PRB 49 14211

InitMesh: MESH =   360 x   360 x   360 =    46656000
InitMesh: Mesh cutoff (required, used) =   800.000   895.461 Ry

efield: External electric field =    0.000000    0.000000    0.002528 Ry/Bohr/e
 
* Maximum dynamic memory allocated =   583 MB

stepf: Fermi-Dirac step function

siesta: Program's energy decomposition (eV):
siesta: Eions   =        26.074526
siesta: Ena     =         4.296329
siesta: Ekin    =        25.015182
siesta: Enl     =       -13.815303
siesta: DEna    =        -0.000001
siesta: DUscf   =         0.000000
siesta: DUext   =         0.000000
siesta: Exc     =       -16.107577
siesta: eta*DQ  =         0.000000
siesta: Emadel  =         0.000000
siesta: Eharris =       -31.439741
siesta: Eso     =         0.000000
siesta: Etot    =       -26.685896
siesta: FreeEng =       -26.685896

siesta: iscf   Eharris(eV)      E_KS(eV)   FreeEng(eV)     dDmax   Ef(eV)
siesta:    1      -31.4397      -26.6859      -26.6859   0.54971   0.0934
timer: Routine,Calls,Time,% = IterSCF        1      75.712  98.35
siesta:    2      -31.3371      -31.3263      -31.3263   0.01876  -4.7661
siesta:    3      -31.3368      -31.2803      -31.2803   0.01897  -4.7847
siesta:    4      -31.3361      -31.3354      -31.3354   0.00192  -4.8969
siesta:    5      -31.3361      -31.3350      -31.3350   0.00151  -4.9013
siesta:    6      -31.3361      -31.3358      -31.3358   0.00002  -4.9027
grdsam: Reading %block GridCellSampling
grdsam: Grid-cell sampling, point   0
grdsam: Generating displacements for grid-cell sampling
grdsam: Grid-cell sampling, point   1
grdsam: Grid-cell sampling, point   2
grdsam: Grid-cell sampling, point   3

siesta: E_KS(eV) =              -31.3358

siesta: E_KS - E_eggbox =       -31.3358

siesta: Atomic forces (eV/Ang):
     1    0.000000    0.000000   -0.001939
     2    0.000000    0.000000    0.002059
----------------------------------------
 Tot    0.000000    0.000000    0.000120
----------------------------------------
 Max    0.002059
 Res    0.001155    sqrt( Sum f_i^2 / 3N )
----------------------------------------
 Max    0.002059    constrained
 
mulliken: Atomic and Orbital Populations:

Species: H                   
Atom  Qatom  Qorb
               1s      1s      2py     2pz     2px     
   1  1.002   0.905   0.083   0.000   0.014   0.000
   2  0.998   0.900   0.083   0.000   0.015   0.000

mulliken: Qtot =    2.000

cgvc: Finished line minimization    1.  Mean atomic displacement =    0.0000

outcoor: Relaxed atomic coordinates (Ang):                  
    0.00000000    0.00000000   -0.00998254   1  H          1
    0.00000000    0.00000000    0.73998166   1  H          2

siesta: Eigenvalues (eV):
  ik is    eps
   1  1 -11.09   1.50   4.20   4.20   9.77  10.88  10.88  17.65  43.44  89.88
siesta: Fermi energy =      -4.902698 eV

siesta: Program's energy decomposition (eV):
siesta:-Eions   =     -26.074526
siesta: Ena     =       4.296329
siesta: Ekin    =      26.390892
siesta: Enl     =     -17.162481
siesta: DEna    =      -1.459747
siesta: DUscf   =       0.252096
siesta: DUext   =      -0.000306
siesta: Exc     =     -17.578091
siesta: eta*DQ  =       0.000000
siesta: Emadel  =       0.000000
siesta: Ekinion =       0.000000
siesta: Eharris =     -31.336100
siesta: Eso     =       0.000000
siesta: Etot    =     -31.335834
siesta: FreeEng =     -31.335834

siesta: Final energy (eV):
siesta:       Kinetic =      26.390892
siesta:       Hartree =      29.275588
siesta:    Ext. field =      -0.000306
siesta:   Exch.-corr. =     -17.578091
siesta:  Ion-electron =     -84.553329
siesta:       Ion-ion =      15.129411
siesta:       Ekinion =       0.000000
siesta:         Total =     -31.335834

siesta: Stress tensor (static) (eV/Ang**3):
siesta:     0.000000    0.000000    0.000000
siesta:     0.000000    0.000000    0.000000
siesta:     0.000000    0.000000    0.000000

siesta: Cell volume =       8000.000000 Ang**3

siesta: Pressure (static):
siesta:                Solid            Molecule  Units
siesta:           0.00000000          0.00000000  Ry/Bohr**3
siesta:           0.00000001         -0.00000005  eV/Ang**3
siesta:           0.00001430         -0.00008579  kBar

siesta: Total spin polarization (Qup-Qdown) =    0.000000
siesta: Spin vector =    0.000000    0.000000    0.000000
siesta: No SpinPolK block detected...

siesta: Electric dipole (a.u.)  =    0.000000    0.000000    0.008888
siesta: Electric dipole (Debye) =    0.000000    0.000000    0.022591
 
* Maximum dynamic memory allocated : Node    0 =   584 MB
* Maximum dynamic memory allocated : Node    1 =   580 MB
* Maximum dynamic memory allocated : Node    2 =   583 MB
* Maximum dynamic memory allocated : Node    3 =   580 MB
* Maximum memory occured during redistribXZ                   

timer: CPU execution times:
timer:  Routine       Calls   Time/call    Tot.time        %
timer:  siesta            1     574.407     574.407   100.00
timer:  Setup             1       1.219       1.219     0.21
timer:  bands             1       0.000       0.000     0.00
timer:  writewave         1       0.004       0.004     0.00
timer:  KSV_init          1       0.000       0.000     0.00
timer:  IterMD            1     495.514     495.514    86.27
timer:  hsparse           2       0.000       0.000     0.00
timer:  overfsm           2       0.022       0.045     0.01
timer:  IterSCF           7      70.742     495.195    86.21
timer:  kinefsm           2       0.013       0.027     0.00
timer:  nlefsm            2       0.381       0.762     0.13
timer:  DHSCF            11      51.973     571.706    99.53
timer:  DHSCF1            1      12.744      12.744     2.22
timer:  DHSCF2            5      24.337     121.685    21.18
timer:  REORD           166       0.147      24.392     4.25
timer:  POISON           16      22.372     357.949    62.32
timer:  DHSCF3           11      39.128     430.409    74.93
timer:  rhoofd           11       0.269       2.963     0.52
timer:  CELLXC           11       4.786      52.642     9.16
timer:  vmat              7       0.129       0.905     0.16
timer:  diagon            6       0.044       0.262     0.05
timer:  rdiag             6       0.038       0.229     0.04
timer:  DHSCF4            4       1.507       6.027     1.05
timer:  dfscf             4       1.212       4.846     0.84
  
>> End of run:   4-OCT-2013  18:37:06
