 DBCSR| CPU Multiplication driver                                           XSMM
 DBCSR| Multrec recursion limit                                              512
 DBCSR| Multiplication stack size                                           1000
 DBCSR| Maximum elements for images                                    UNLIMITED
 DBCSR| Multiplicative factor virtual images                                   1
 DBCSR| Use multiplication densification                                       T
 DBCSR| Multiplication size stacks                                             3
 DBCSR| Use memory pool for CPU allocation                                     F
 DBCSR| Number of 3D layers                                               SINGLE
 DBCSR| Use MPI memory allocation                                              F
 DBCSR| Use RMA algorithm                                                      F
 DBCSR| Use Communication thread                                               T
 DBCSR| Communication thread load                                             87
 DBCSR| MPI: My node id                                                        0
 DBCSR| MPI: Number of nodes                                                 240
 DBCSR| OMP: Current number of threads                                         1
 DBCSR| OMP: Max number of threads                                             1
 DBCSR| Split modifier for TAS multiplication algorithm                  1.0E+00


  **** **** ******  **  PROGRAM STARTED AT               2023-02-25 08:17:39.396
 ***** ** ***  *** **   PROGRAM STARTED ON                 cn1096.scarf.rl.ac.uk
 **    ****   ******    PROGRAM STARTED BY                             scarf1157
 ***** **    ** ** **   PROGRAM PROCESS ID                                 34630
  **** **  *******  **  PROGRAM STARTED IN /work4/scd/scarf1157/work/testing/cp2
                                           k-smeagol/bdt/cp2k/hollow-site/transp
                                           ort-cp2k/5-4/geometry-ordered/3x3-4/s
                                           z/bulk_layers-4/iv/kpoints_bulk-2-2-1
                                           00_em-2-2-1_2

 CP2K| version string:                 CP2K version 2022.1 (Development Version)
 CP2K| source code revision number:                                  git:1ef701d
 CP2K| cp2kflags: omp fftw3 libxc parallel mpi3 scalapack xsmm spglib           
 CP2K| is freely available from                            https://www.cp2k.org/
 CP2K| Program compiled at                          Thu 26 Jan 13:39:53 GMT 2023
 CP2K| Program compiled on                                 cn1108.scarf.rl.ac.uk
 CP2K| Program compiled for                                                local
 CP2K| Data directory path    /home/vol07/scarf1157/code/smeagol/cp2k-smeagol/sc
 CP2K| Input file name                                                 V_1.6.inp

 GLOBAL| Force Environment number                                              1
 GLOBAL| Basis set file name                                        BASIS_MOLOPT
 GLOBAL| Potential file name                                      GTH_POTENTIALS
 GLOBAL| MM Potential file name                                     MM_POTENTIAL
 GLOBAL| Coordinate file name                                             em.xyz
 GLOBAL| Method name                                                        CP2K
 GLOBAL| Project name                                                      V-1.6
 GLOBAL| Run type                                                         ENERGY
 GLOBAL| FFT library                                                       FFTW3
 GLOBAL| Diagonalization library                                       ScaLAPACK
 GLOBAL| Orthonormality check for eigenvectors                          DISABLED
 GLOBAL| Matrix multiplication library                                 ScaLAPACK
 GLOBAL| All-to-all communication in single precision                          F
 GLOBAL| FFTs using library dependent lengths                                  T
 GLOBAL| Grid backend                                                       AUTO
 GLOBAL| Global print level                                               MEDIUM
 GLOBAL| MPI I/O enabled                                                       T
 GLOBAL| Total number of message passing processes                           240
 GLOBAL| Number of threads for this process                                    1
 GLOBAL| This output is from process                                           0
 GLOBAL| Stack size for threads created by OpenMP (OMP_STACKSIZE)        default
 GLOBAL| CPU model name                         AMD EPYC 7502P 32-Core Processor
 GLOBAL| CPUID                                                              1002

 MEMORY| system memory details [Kb]
 MEMORY|                        rank 0           min           max       average
 MEMORY| MemTotal            263896980     263896980     263896984     263896981
 MEMORY| MemFree             206798024     135377020     215721184     190333515
 MEMORY| Buffers                  3452          2564          3452          2678
 MEMORY| Cached               41295128      32506684     112536680      57762687
 MEMORY| Slab                   933660        933660       1277216       1143791
 MEMORY| SReclaimable           472192        472192        773148        641390
 MEMORY| MemLikelyFree       248568796     248528816     249105340     248740271


 *** Fundamental physical constants (SI units) ***

 *** Literature: B. J. Mohr and B. N. Taylor,
 ***             CODATA recommended values of the fundamental physical
 ***             constants: 2006, Web Version 5.1
 ***             http://physics.nist.gov/constants

 Speed of light in vacuum [m/s]                             2.99792458000000E+08
 Magnetic constant or permeability of vacuum [N/A**2]       1.25663706143592E-06
 Electric constant or permittivity of vacuum [F/m]          8.85418781762039E-12
 Planck constant (h) [J*s]                                  6.62606896000000E-34
 Planck constant (h-bar) [J*s]                              1.05457162825177E-34
 Elementary charge [C]                                      1.60217648700000E-19
 Electron mass [kg]                                         9.10938215000000E-31
 Electron g factor [ ]                                     -2.00231930436220E+00
 Proton mass [kg]                                           1.67262163700000E-27
 Fine-structure constant                                    7.29735253760000E-03
 Rydberg constant [1/m]                                     1.09737315685270E+07
 Avogadro constant [1/mol]                                  6.02214179000000E+23
 Boltzmann constant [J/K]                                   1.38065040000000E-23
 Atomic mass unit [kg]                                      1.66053878200000E-27
 Bohr radius [m]                                            5.29177208590000E-11

 *** Conversion factors ***

 [u] -> [a.u.]                                              1.82288848426455E+03
 [Angstrom] -> [Bohr] = [a.u.]                              1.88972613288564E+00
 [a.u.] = [Bohr] -> [Angstrom]                              5.29177208590000E-01
 [a.u.] -> [s]                                              2.41888432650478E-17
 [a.u.] -> [fs]                                             2.41888432650478E-02
 [a.u.] -> [J]                                              4.35974393937059E-18
 [a.u.] -> [N]                                              8.23872205491840E-08
 [a.u.] -> [K]                                              3.15774647902944E+05
 [a.u.] -> [kJ/mol]                                         2.62549961709828E+03
 [a.u.] -> [kcal/mol]                                       6.27509468713739E+02
 [a.u.] -> [Pa]                                             2.94210107994716E+13
 [a.u.] -> [bar]                                            2.94210107994716E+08
 [a.u.] -> [atm]                                            2.90362800883016E+08
 [a.u.] -> [eV]                                             2.72113838565563E+01
 [a.u.] -> [Hz]                                             6.57968392072181E+15
 [a.u.] -> [1/cm] (wave numbers)                            2.19474631370540E+05
 [a.u./Bohr**2] -> [1/cm]                                   5.14048714338585E+03
 

 CELL_TOP| Volume [angstrom^3]:                                      2357.480286
 CELL_TOP| Vector a [angstrom     8.336     0.000     0.000   |a| =     8.336000
 CELL_TOP| Vector b [angstrom     0.000     8.336     0.000   |b| =     8.336000
 CELL_TOP| Vector c [angstrom     0.000     0.000    33.926   |c| =    33.926000
 CELL_TOP| Angle (b,c), alpha [degree]:                                90.000000
 CELL_TOP| Angle (a,c), beta  [degree]:                                90.000000
 CELL_TOP| Angle (a,b), gamma [degree]:                                90.000000
 CELL_TOP| Numerically orthorhombic:                                         YES
 CELL_TOP| Periodicity                                                       XYZ

 GENERATE|  Preliminary Number of Bonds generated:                             0
 GENERATE|  Achieved consistency in connectivity generation.

 CELL| Volume [angstrom^3]:                                          2357.480286
 CELL| Vector a [angstrom]:       8.336     0.000     0.000   |a| =     8.336000
 CELL| Vector b [angstrom]:       0.000     8.336     0.000   |b| =     8.336000
 CELL| Vector c [angstrom]:       0.000     0.000    33.926   |c| =    33.926000
 CELL| Angle (b,c), alpha [degree]:                                    90.000000
 CELL| Angle (a,c), beta  [degree]:                                    90.000000
 CELL| Angle (a,b), gamma [degree]:                                    90.000000
 CELL| Numerically orthorhombic:                                             YES
 CELL| Periodicity                                                           XYZ

 CELL_REF| Volume [angstrom^3]:                                      2357.480286
 CELL_REF| Vector a [angstrom     8.336     0.000     0.000   |a| =     8.336000
 CELL_REF| Vector b [angstrom     0.000     8.336     0.000   |b| =     8.336000
 CELL_REF| Vector c [angstrom     0.000     0.000    33.926   |c| =    33.926000
 CELL_REF| Angle (b,c), alpha [degree]:                                90.000000
 CELL_REF| Angle (a,c), beta  [degree]:                                90.000000
 CELL_REF| Angle (a,b), gamma [degree]:                                90.000000
 CELL_REF| Numerically orthorhombic:                                         YES
 CELL_REF| Periodicity                                                       XYZ

 *******************************************************************************
                                    Kpoints
 *******************************************************************************
 BRILLOUIN| K-point scheme                                        Monkhorst-Pack
 BRILLOUIN| K-Point grid                                             2    2    1
 BRILLOUIN| Accuracy in Symmetry determination                      0.100000E-07
 BRILLOUIN| K-Point point group symmetrization                               OFF
 BRILLOUIN| Wavefunction type                                            COMPLEX
 BRILLOUIN| Use full k-point grid     
 BRILLOUIN| List of Kpoints [2 Pi/Bohr]                                        4
 BRILLOUIN| Number           Weight            X              Y              Z
 BRILLOUIN|     1           0.25000       -0.25000       -0.25000        0.00000
 BRILLOUIN|     2           0.25000       -0.25000        0.25000        0.00000
 BRILLOUIN|     3           0.25000        0.25000       -0.25000        0.00000
 BRILLOUIN|     4           0.25000        0.25000        0.25000        0.00000
 *******************************************************************************

 *******************************************************************************
 *******************************************************************************
 **                                                                           **
 **     #####                         ##              ##                      **
 **    ##   ##            ##          ##              ##                      **
 **   ##     ##                       ##            ######                    **
 **   ##     ##  ##   ##  ##   #####  ##  ##   ####   ##    #####    #####    **
 **   ##     ##  ##   ##  ##  ##      ## ##   ##      ##   ##   ##  ##   ##   **
 **   ##  ## ##  ##   ##  ##  ##      ####     ###    ##   ######   ######    **
 **    ##  ###   ##   ##  ##  ##      ## ##      ##   ##   ##       ##        **
 **     #######   #####   ##   #####  ##  ##  ####    ##    #####   ##        **
 **           ##                                                    ##        **
 **                                                                           **
 **                                                ... make the atoms dance   **
 **                                                                           **
 **            Copyright (C) by CP2K developers group (2000-2022)             **
 **                      J. Chem. Phys. 152, 194103 (2020)                    **
 **                                                                           **
 *******************************************************************************

 DFT| Spin restricted Kohn-Sham (RKS) calculation                            RKS
 DFT| Multiplicity                                                             1
 DFT| Number of spin states                                                    1
 DFT| Charge                                                                   0
 DFT| Self-interaction correction (SIC)                                       NO
 DFT| Cutoffs: density                                              1.000000E-10
 DFT|          gradient                                             1.000000E-10
 DFT|          tau                                                  1.000000E-10
 DFT|          cutoff_smoothing_range                               0.000000E+00
 DFT| XC density smoothing                                                  NONE
 DFT| XC derivatives                                                          PW

 FUNCTIONAL| PADE:
 FUNCTIONAL| S. Goedecker, M. Teter and J. Hutter, Phys. Rev. B 54, 1703 (1996) 


 QS| Method:                                                                 GPW
 QS| Density plane wave grid type                        NON-SPHERICAL FULLSPACE
 QS| Number of grid levels:                                                    4
 QS| Density cutoff [a.u.]:                                                200.0
 QS| Multi grid cutoff [a.u.]: 1) grid level                               200.0
 QS|                           2) grid level                                66.7
 QS|                           3) grid level                                22.2
 QS|                           4) grid level                                 7.4
 QS| Grid level progression factor:                                          3.0
 QS| Relative density cutoff [a.u.]:                                        20.0
 QS| Interaction thresholds: eps_pgf_orb:                                1.0E-05
 QS|                         eps_filter_matrix:                          0.0E+00
 QS|                         eps_core_charge:                            1.0E-12
 QS|                         eps_rho_gspace:                             1.0E-10
 QS|                         eps_rho_rspace:                             1.0E-10
 QS|                         eps_gvg_rspace:                             1.0E-05
 QS|                         eps_ppl:                                    1.0E-02
 QS|                         eps_ppnl:                                   1.0E-07


 ATOMIC KIND INFORMATION

  1. Atomic kind: Au                                    Number of atoms:     104

     Orbital Basis Set                                         SZV-MOLOPT-SR-GTH

       Number of orbital shell sets:                                           1
       Number of orbital shells:                                               3
       Number of primitive Cartesian functions:                                5
       Number of Cartesian basis functions:                                   10
       Number of spherical basis functions:                                    9
       Norm type:                                                              2

       Normalised Cartesian orbitals:

                        Set   Shell   Orbital            Exponent    Coefficient

                          1       1    2s                2.950008       0.074626
                                                         1.563057      -0.007898
                                                         0.666664      -0.297688
                                                         0.251083       0.136809
                                                         0.081714       0.088198

                          1       2    3px               2.950008       0.148824
                                                         1.563057       0.025430
                                                         0.666664      -0.123003
                                                         0.251083       0.033648
                                                         0.081714       0.059008
                          1       2    3py               2.950008       0.148824
                                                         1.563057       0.025430
                                                         0.666664      -0.123003
                                                         0.251083       0.033648
                                                         0.081714       0.059008
                          1       2    3pz               2.950008       0.148824
                                                         1.563057       0.025430
                                                         0.666664      -0.123003
                                                         0.251083       0.033648
                                                         0.081714       0.059008

                          1       3    4dx2              2.950008      -0.139595
                                                         1.563057       1.319655
                                                         0.666664       0.377081
                                                         0.251083       0.046872
                                                         0.081714       0.001393
                          1       3    4dxy              2.950008      -0.241786
                                                         1.563057       2.285709
                                                         0.666664       0.653124
                                                         0.251083       0.081185
                                                         0.081714       0.002412
                          1       3    4dxz              2.950008      -0.241786
                                                         1.563057       2.285709
                                                         0.666664       0.653124
                                                         0.251083       0.081185
                                                         0.081714       0.002412
                          1       3    4dy2              2.950008      -0.139595
                                                         1.563057       1.319655
                                                         0.666664       0.377081
                                                         0.251083       0.046872
                                                         0.081714       0.001393
                          1       3    4dyz              2.950008      -0.241786
                                                         1.563057       2.285709
                                                         0.666664       0.653124
                                                         0.251083       0.081185
                                                         0.081714       0.002412
                          1       3    4dz2              2.950008      -0.139595
                                                         1.563057       1.319655
                                                         0.666664       0.377081
                                                         0.251083       0.046872
                                                         0.081714       0.001393

       Atomic covalent radius [Angstrom]:                                  1.340

       Atomic van der Waals radius [Angstrom]:                             1.660

     GTH Potential information for                                  GTH-PADE-q11

       Description:                       Goedecker-Teter-Hutter pseudopotential
                                           Goedecker et al., PRB 54, 1703 (1996)
                                          Hartwigsen et al., PRB 58, 3641 (1998)
                                                      Krack, TCA 114, 145 (2005)

       Gaussian exponent of the core charge distribution:               1.436369
       Electronic configuration (s p d ...):                           1   0  10

       Parameters of the local part of the GTH pseudopotential:

                          rloc        C1          C2          C3          C4
                        0.590000   11.604428

       Parameters of the non-local part of the GTH pseudopotential:

                   l      r(l)      h(i,j,l)

                   0    0.521180    2.538614   -1.046137
                                   -1.046137    2.701113
                   1    0.630613    0.394853   -0.869592
                                   -0.869592    2.057831
                   2    0.440706   -4.719070    0.727771
                                    0.727771   -1.650429

  2. Atomic kind: S                                     Number of atoms:       2

     Orbital Basis Set                                         SZV-MOLOPT-SR-GTH

       Number of orbital shell sets:                                           1
       Number of orbital shells:                                               2
       Number of primitive Cartesian functions:                                4
       Number of Cartesian basis functions:                                    4
       Number of spherical basis functions:                                    4
       Norm type:                                                              2

       Normalised Cartesian orbitals:

                        Set   Shell   Orbital            Exponent    Coefficient

                          1       1    2s                2.215855       0.308496
                                                         1.131471       0.138505
                                                         0.410168      -0.373736
                                                         0.140587      -0.040370

                          1       2    3px               2.215855       0.420434
                                                         1.131471      -0.319283
                                                         0.410168      -0.335323
                                                         0.140587      -0.030976
                          1       2    3py               2.215855       0.420434
                                                         1.131471      -0.319283
                                                         0.410168      -0.335323
                                                         0.140587      -0.030976
                          1       2    3pz               2.215855       0.420434
                                                         1.131471      -0.319283
                                                         0.410168      -0.335323
                                                         0.140587      -0.030976

       Atomic covalent radius [Angstrom]:                                  1.020

       Atomic van der Waals radius [Angstrom]:                             1.800

     GTH Potential information for                                   GTH-PADE-q6

       Description:                       Goedecker-Teter-Hutter pseudopotential
                                           Goedecker et al., PRB 54, 1703 (1996)
                                          Hartwigsen et al., PRB 58, 3641 (1998)
                                                      Krack, TCA 114, 145 (2005)

       Gaussian exponent of the core charge distribution:               2.834467
       Electronic configuration (s p d ...):                               2   4

       Parameters of the local part of the GTH pseudopotential:

                          rloc        C1          C2          C3          C4
                        0.420000   -6.554492

       Parameters of the non-local part of the GTH pseudopotential:

                   l      r(l)      h(i,j,l)

                   0    0.361757    7.905303   -1.731881
                                   -1.731881    4.471698
                   1    0.405285    3.866579

  3. Atomic kind: C                                     Number of atoms:       6

     Orbital Basis Set                                         SZV-MOLOPT-SR-GTH

       Number of orbital shell sets:                                           1
       Number of orbital shells:                                               2
       Number of primitive Cartesian functions:                                5
       Number of Cartesian basis functions:                                    4
       Number of spherical basis functions:                                    4
       Norm type:                                                              2

       Normalised Cartesian orbitals:

                        Set   Shell   Orbital            Exponent    Coefficient

                          1       1    2s                5.605331       0.322515
                                                         2.113016       0.213043
                                                         0.769911      -0.209686
                                                         0.348157      -0.219794
                                                         0.128212      -0.022789

                          1       2    3px               5.605331      -0.703879
                                                         2.113016      -0.642521
                                                         0.769911      -0.374851
                                                         0.348157      -0.139743
                                                         0.128212      -0.027849
                          1       2    3py               5.605331      -0.703879
                                                         2.113016      -0.642521
                                                         0.769911      -0.374851
                                                         0.348157      -0.139743
                                                         0.128212      -0.027849
                          1       2    3pz               5.605331      -0.703879
                                                         2.113016      -0.642521
                                                         0.769911      -0.374851
                                                         0.348157      -0.139743
                                                         0.128212      -0.027849

       Atomic covalent radius [Angstrom]:                                  0.770

       Atomic van der Waals radius [Angstrom]:                             1.700

     GTH Potential information for                                   GTH-PADE-q4

       Description:                       Goedecker-Teter-Hutter pseudopotential
                                           Goedecker et al., PRB 54, 1703 (1996)
                                          Hartwigsen et al., PRB 58, 3641 (1998)
                                                      Krack, TCA 114, 145 (2005)

       Gaussian exponent of the core charge distribution:               4.109048
       Electronic configuration (s p d ...):                               2   2

       Parameters of the local part of the GTH pseudopotential:

                          rloc        C1          C2          C3          C4
                        0.348830   -8.513771    1.228432

       Parameters of the non-local part of the GTH pseudopotential:

                   l      r(l)      h(i,j,l)

                   0    0.304553    9.522842
                   1    0.232677

  4. Atomic kind: H                                     Number of atoms:       4

     Orbital Basis Set                                         SZV-MOLOPT-SR-GTH

       Number of orbital shell sets:                                           1
       Number of orbital shells:                                               1
       Number of primitive Cartesian functions:                                5
       Number of Cartesian basis functions:                                    1
       Number of spherical basis functions:                                    1
       Norm type:                                                              2

       Normalised Cartesian orbitals:

                        Set   Shell   Orbital            Exponent    Coefficient

                          1       1    2s               10.068468      -0.133023
                                                         2.680223      -0.177618
                                                         0.791502      -0.258419
                                                         0.239116      -0.107525
                                                         0.082193      -0.014019

       Atomic covalent radius [Angstrom]:                                  0.320

       Atomic van der Waals radius [Angstrom]:                             1.090

     GTH Potential information for                                   GTH-PADE-q1

       Description:                       Goedecker-Teter-Hutter pseudopotential
                                           Goedecker et al., PRB 54, 1703 (1996)
                                          Hartwigsen et al., PRB 58, 3641 (1998)
                                                      Krack, TCA 114, 145 (2005)

       Gaussian exponent of the core charge distribution:              12.500000
       Electronic configuration (s p d ...):                                   1

       Parameters of the local part of the GTH pseudopotential:

                          rloc        C1          C2          C3          C4
                        0.200000   -4.180237    0.725075


 MOLECULE KIND INFORMATION


 All atoms are their own molecule, skipping detailed information


 TOTAL NUMBERS AND MAXIMUM NUMBERS

  Total number of            - Atomic kinds:                                   4
                             - Atoms:                                        116
                             - Shell sets:                                   116
                             - Shells:                                       332
                             - Primitive Cartesian functions:                578
                             - Cartesian basis functions:                   1076
                             - Spherical basis functions:                    972

  Maximum angular momentum of- Orbital basis functions:                        2
                             - Local part of the GTH pseudopotential:          2
                             - Non-local part of the GTH pseudopotential:      4


 MODULE QUICKSTEP: ATOMIC COORDINATES IN ANGSTROM

   Atom Kind Element         X             Y             Z       Z(eff)     Mass
      1    1 Au   79      0.000000      0.000000      0.000000  11.0000 196.9666
      2    1 Au   79      0.000000      4.168000      0.000000  11.0000 196.9666
      3    1 Au   79      2.084000      2.084000      0.000000  11.0000 196.9666
      4    1 Au   79      2.084000      6.252000      0.000000  11.0000 196.9666
      5    1 Au   79      4.168000      0.000000      0.000000  11.0000 196.9666
      6    1 Au   79      4.168000      4.168000      0.000000  11.0000 196.9666
      7    1 Au   79      6.252000      2.084000      0.000000  11.0000 196.9666
      8    1 Au   79      6.252000      6.252000      0.000000  11.0000 196.9666
      9    1 Au   79      0.000000      2.084000      2.084000  11.0000 196.9666
     10    1 Au   79      0.000000      6.252000      2.084000  11.0000 196.9666
     11    1 Au   79      2.084000      0.000000      2.084000  11.0000 196.9666
     12    1 Au   79      2.084000      4.168000      2.084000  11.0000 196.9666
     13    1 Au   79      4.168000      2.084000      2.084000  11.0000 196.9666
     14    1 Au   79      4.168000      6.252000      2.084000  11.0000 196.9666
     15    1 Au   79      6.252000      0.000000      2.084000  11.0000 196.9666
     16    1 Au   79      6.252000      4.168000      2.084000  11.0000 196.9666
     17    1 Au   79      0.000000      0.000000      4.168000  11.0000 196.9666
     18    1 Au   79      0.000000      4.168000      4.168000  11.0000 196.9666
     19    1 Au   79      2.084000      2.084000      4.168000  11.0000 196.9666
     20    1 Au   79      2.084000      6.252000      4.168000  11.0000 196.9666
     21    1 Au   79      4.168000      0.000000      4.168000  11.0000 196.9666
     22    1 Au   79      4.168000      4.168000      4.168000  11.0000 196.9666
     23    1 Au   79      6.252000      2.084000      4.168000  11.0000 196.9666
     24    1 Au   79      6.252000      6.252000      4.168000  11.0000 196.9666
     25    1 Au   79      0.000000      2.084000      6.252000  11.0000 196.9666
     26    1 Au   79      0.000000      6.252000      6.252000  11.0000 196.9666
     27    1 Au   79      2.084000      0.000000      6.252000  11.0000 196.9666
     28    1 Au   79      2.084000      4.168000      6.252000  11.0000 196.9666
     29    1 Au   79      4.168000      2.084000      6.252000  11.0000 196.9666
     30    1 Au   79      4.168000      6.252000      6.252000  11.0000 196.9666
     31    1 Au   79      6.252000      0.000000      6.252000  11.0000 196.9666
     32    1 Au   79      6.252000      4.168000      6.252000  11.0000 196.9666
     33    1 Au   79      0.000000      0.000000      8.336000  11.0000 196.9666
     34    1 Au   79      0.000000      4.168000      8.336000  11.0000 196.9666
     35    1 Au   79      2.084000      2.084000      8.336000  11.0000 196.9666
     36    1 Au   79      2.084000      6.252000      8.336000  11.0000 196.9666
     37    1 Au   79      4.168000      0.000000      8.336000  11.0000 196.9666
     38    1 Au   79      4.168000      4.168000      8.336000  11.0000 196.9666
     39    1 Au   79      6.252000      2.084000      8.336000  11.0000 196.9666
     40    1 Au   79      6.252000      6.252000      8.336000  11.0000 196.9666
     41    1 Au   79      0.000000      2.084000     10.420000  11.0000 196.9666
     42    1 Au   79      0.000000      6.252000     10.420000  11.0000 196.9666
     43    1 Au   79      2.084000      0.000000     10.420000  11.0000 196.9666
     44    1 Au   79      2.084000      4.168000     10.420000  11.0000 196.9666
     45    1 Au   79      4.168000      2.084000     10.420000  11.0000 196.9666
     46    1 Au   79      4.168000      6.252000     10.420000  11.0000 196.9666
     47    1 Au   79      6.252000      0.000000     10.420000  11.0000 196.9666
     48    1 Au   79      6.252000      4.168000     10.420000  11.0000 196.9666
     49    1 Au   79      0.000000      0.000000     12.504000  11.0000 196.9666
     50    1 Au   79      0.000000      4.168000     12.504000  11.0000 196.9666
     51    1 Au   79      2.084000      2.084000     12.504000  11.0000 196.9666
     52    1 Au   79      2.084000      6.252000     12.504000  11.0000 196.9666
     53    1 Au   79      4.168000      0.000000     12.504000  11.0000 196.9666
     54    1 Au   79      4.168000      4.168000     12.504000  11.0000 196.9666
     55    1 Au   79      6.252000      2.084000     12.504000  11.0000 196.9666
     56    1 Au   79      6.252000      6.252000     12.504000  11.0000 196.9666
     57    2 S    16      4.171000      2.086000     13.790000   6.0000  32.0650
     58    3 C     6      4.175000      2.089000     15.551000   4.0000  12.0107
     59    4 H     1      2.073000      2.116000     15.734000   1.0000   1.0079
     60    4 H     1      6.269000      2.116000     15.740000   1.0000   1.0079
     61    3 C     6      2.965000      2.095000     16.251000   4.0000  12.0107
     62    3 C     6      5.373000      2.095000     16.251000   4.0000  12.0107
     63    3 C     6      2.959000      2.074000     17.674000   4.0000  12.0107
     64    3 C     6      5.367000      2.074000     17.674000   4.0000  12.0107
     65    4 H     1      2.063000      2.053000     18.186000   1.0000   1.0079
     66    4 H     1      6.259000      2.053000     18.192000   1.0000   1.0079
     67    3 C     6      4.157000      2.080000     18.375000   4.0000  12.0107
     68    2 S    16      4.171000      2.086000     20.136000   6.0000  32.0650
     69    1 Au   79      0.000000      0.000000     21.422000  11.0000 196.9666
     70    1 Au   79      0.000000      4.168000     21.422000  11.0000 196.9666
     71    1 Au   79      2.084000      2.084000     21.422000  11.0000 196.9666
     72    1 Au   79      2.084000      6.252000     21.422000  11.0000 196.9666
     73    1 Au   79      4.168000      0.000000     21.422000  11.0000 196.9666
     74    1 Au   79      4.168000      4.168000     21.422000  11.0000 196.9666
     75    1 Au   79      6.252000      2.084000     21.422000  11.0000 196.9666
     76    1 Au   79      6.252000      6.252000     21.422000  11.0000 196.9666
     77    1 Au   79      0.000000      2.084000     23.506000  11.0000 196.9666
     78    1 Au   79      0.000000      6.252000     23.506000  11.0000 196.9666
     79    1 Au   79      2.084000      0.000000     23.506000  11.0000 196.9666
     80    1 Au   79      2.084000      4.168000     23.506000  11.0000 196.9666
     81    1 Au   79      4.168000      2.084000     23.506000  11.0000 196.9666
     82    1 Au   79      4.168000      6.252000     23.506000  11.0000 196.9666
     83    1 Au   79      6.252000      0.000000     23.506000  11.0000 196.9666
     84    1 Au   79      6.252000      4.168000     23.506000  11.0000 196.9666
     85    1 Au   79      0.000000      0.000000     25.590000  11.0000 196.9666
     86    1 Au   79      0.000000      4.168000     25.590000  11.0000 196.9666
     87    1 Au   79      2.084000      2.084000     25.590000  11.0000 196.9666
     88    1 Au   79      2.084000      6.252000     25.590000  11.0000 196.9666
     89    1 Au   79      4.168000      0.000000     25.590000  11.0000 196.9666
     90    1 Au   79      4.168000      4.168000     25.590000  11.0000 196.9666
     91    1 Au   79      6.252000      2.084000     25.590000  11.0000 196.9666
     92    1 Au   79      6.252000      6.252000     25.590000  11.0000 196.9666
     93    1 Au   79      0.000000      2.084000     27.674000  11.0000 196.9666
     94    1 Au   79      0.000000      6.252000     27.674000  11.0000 196.9666
     95    1 Au   79      2.084000      0.000000     27.674000  11.0000 196.9666
     96    1 Au   79      2.084000      4.168000     27.674000  11.0000 196.9666
     97    1 Au   79      4.168000      2.084000     27.674000  11.0000 196.9666
     98    1 Au   79      4.168000      6.252000     27.674000  11.0000 196.9666
     99    1 Au   79      6.252000      0.000000     27.674000  11.0000 196.9666
    100    1 Au   79      6.252000      4.168000     27.674000  11.0000 196.9666
    101    1 Au   79      0.000000      0.000000     29.758000  11.0000 196.9666
    102    1 Au   79      0.000000      4.168000     29.758000  11.0000 196.9666
    103    1 Au   79      2.084000      2.084000     29.758000  11.0000 196.9666
    104    1 Au   79      2.084000      6.252000     29.758000  11.0000 196.9666
    105    1 Au   79      4.168000      0.000000     29.758000  11.0000 196.9666
    106    1 Au   79      4.168000      4.168000     29.758000  11.0000 196.9666
    107    1 Au   79      6.252000      2.084000     29.758000  11.0000 196.9666
    108    1 Au   79      6.252000      6.252000     29.758000  11.0000 196.9666
    109    1 Au   79      0.000000      2.084000     31.842000  11.0000 196.9666
    110    1 Au   79      0.000000      6.252000     31.842000  11.0000 196.9666
    111    1 Au   79      2.084000      0.000000     31.842000  11.0000 196.9666
    112    1 Au   79      2.084000      4.168000     31.842000  11.0000 196.9666
    113    1 Au   79      4.168000      2.084000     31.842000  11.0000 196.9666
    114    1 Au   79      4.168000      6.252000     31.842000  11.0000 196.9666
    115    1 Au   79      6.252000      0.000000     31.842000  11.0000 196.9666
    116    1 Au   79      6.252000      4.168000     31.842000  11.0000 196.9666



 SCF PARAMETERS         Density guess:                                   RESTART
                        --------------------------------------------------------
                        max_scf:                                             100
                        max_scf_history:                                       0
                        max_diis:                                              4
                        --------------------------------------------------------
                        eps_scf:                                        1.00E-07
                        eps_scf_history:                                0.00E+00
                        eps_diis:                                       1.00E-01
                        eps_eigval:                                     1.00E-05
                        --------------------------------------------------------
                        level_shift [a.u.]:                             0.000000
                        added MOs                                       100    0
                        --------------------------------------------------------
                        Mixing method:                            BROYDEN_MIXING
                                                charge density mixing in g-space
                        --------------------------------------------------------
                        Smear method:                                FERMI_DIRAC
                        Electronic temperature [K]:                        293.0
                        Electronic temperature [a.u.]:                  9.28E-04
                        Accuracy threshold:                             1.00E-10
                        --------------------------------------------------------
                        No outer SCF

 PW_GRID| Information for grid number                                          1
 PW_GRID| Grid distributed over                                   240 processors
 PW_GRID| Real space group dimensions                                    12   20
 PW_GRID| the grid is blocked:                                               YES
 PW_GRID| Cutoff [a.u.]                                                    200.0
 PW_GRID| spherical cutoff:                                                   NO
 PW_GRID|   Bounds   1            -52      52                Points:         105
 PW_GRID|   Bounds   2            -52      52                Points:         105
 PW_GRID|   Bounds   3           -210     209                Points:         420
 PW_GRID| Volume element (a.u.^3)  0.3436E-02     Volume (a.u.^3)     15909.0657
 PW_GRID| Grid span                                                    FULLSPACE
 PW_GRID|   Distribution                         Average         Max         Min
 PW_GRID|   G-Vectors                            19293.8       19845       17640
 PW_GRID|   G-Rays                                 183.8         189         168
 PW_GRID|   Real Space Points                    19293.8       19845       17640

 PW_GRID| Information for grid number                                          2
 PW_GRID| Number of the reference grid                                         1
 PW_GRID| Grid distributed over                                   240 processors
 PW_GRID| Real space group dimensions                                    12   20
 PW_GRID| the grid is blocked:                                                NO
 PW_GRID| Cutoff [a.u.]                                                     66.7
 PW_GRID| spherical cutoff:                                                   NO
 PW_GRID|   Bounds   1            -30      29                Points:          60
 PW_GRID|   Bounds   2            -30      29                Points:          60
 PW_GRID|   Bounds   3           -120     119                Points:         240
 PW_GRID| Volume element (a.u.^3)  0.1841E-01     Volume (a.u.^3)     15909.0657
 PW_GRID| Grid span                                                    FULLSPACE
 PW_GRID|   Distribution                         Average         Max         Min
 PW_GRID|   G-Vectors                             3600.0       11340           0
 PW_GRID|   G-Rays                                  60.0         189           0
 PW_GRID|   Real Space Points                     3600.0        3600        3600

 PW_GRID| Information for grid number                                          3
 PW_GRID| Number of the reference grid                                         1
 PW_GRID| Grid distributed over                                   240 processors
 PW_GRID| Real space group dimensions                                    12   20
 PW_GRID| the grid is blocked:                                                NO
 PW_GRID| Cutoff [a.u.]                                                     22.2
 PW_GRID| spherical cutoff:                                                   NO
 PW_GRID|   Bounds   1            -16      16                Points:          33
 PW_GRID|   Bounds   2            -16      16                Points:          33
 PW_GRID|   Bounds   3            -70      69                Points:         140
 PW_GRID| Volume element (a.u.^3)  0.1043         Volume (a.u.^3)     15909.0657
 PW_GRID| Grid span                                                    FULLSPACE
 PW_GRID|   Distribution                         Average         Max         Min
 PW_GRID|   G-Vectors                              635.2        6237           0
 PW_GRID|   G-Rays                                  19.2         189           0
 PW_GRID|   Real Space Points                      635.2         840         280

 PW_GRID| Information for grid number                                          4
 PW_GRID| Number of the reference grid                                         1
 PW_GRID| Grid distributed over                                   240 processors
 PW_GRID| Real space group dimensions                                    12   20
 PW_GRID| the grid is blocked:                                                NO
 PW_GRID| Cutoff [a.u.]                                                      7.4
 PW_GRID| spherical cutoff:                                                   NO
 PW_GRID|   Bounds   1            -10       9                Points:          20
 PW_GRID|   Bounds   2            -10       9                Points:          20
 PW_GRID|   Bounds   3            -40      39                Points:          80
 PW_GRID| Volume element (a.u.^3)  0.4972         Volume (a.u.^3)     15909.0657
 PW_GRID| Grid span                                                    FULLSPACE
 PW_GRID|   Distribution                         Average         Max         Min
 PW_GRID|   G-Vectors                              133.3        3780           0
 PW_GRID|   G-Rays                                   6.7         189           0
 PW_GRID|   Real Space Points                      133.3         160          80

 POISSON| Solver                                                        PERIODIC
 POISSON| Periodicity                                                        XYZ

 RS_GRID| Information for grid number                                          1
 RS_GRID|   Bounds   1            -52      52                Points:         105
 RS_GRID|   Bounds   2            -52      52                Points:         105
 RS_GRID|   Bounds   3           -210     209                Points:         420
 RS_GRID| Real space distribution over                                  8 groups
 RS_GRID| Real space distribution along direction                              2
 RS_GRID| Border size                                                         30
 RS_GRID| Real space distribution over                                 30 groups
 RS_GRID| Real space distribution along direction                              3
 RS_GRID| Border size                                                         30
 RS_GRID|   Distribution                         Average         Max         Min
 RS_GRID|   Planes                                  73.1          74          73
 RS_GRID|   Distribution                         Average         Max         Min
 RS_GRID|   Planes                                  74.0          74          74

 RS_GRID| Information for grid number                                          2
 RS_GRID|   Bounds   1            -30      29                Points:          60
 RS_GRID|   Bounds   2            -30      29                Points:          60
 RS_GRID|   Bounds   3           -120     119                Points:         240
 RS_GRID| Real space distribution over                                  8 groups
 RS_GRID| Real space distribution along direction                              2
 RS_GRID| Border size                                                         21
 RS_GRID| Real space distribution over                                 30 groups
 RS_GRID| Real space distribution along direction                              3
 RS_GRID| Border size                                                         21
 RS_GRID|   Distribution                         Average         Max         Min
 RS_GRID|   Planes                                  49.5          50          49
 RS_GRID|   Distribution                         Average         Max         Min
 RS_GRID|   Planes                                  50.0          50          50

 RS_GRID| Information for grid number                                          3
 RS_GRID|   Bounds   1            -16      16                Points:          33
 RS_GRID|   Bounds   2            -16      16                Points:          33
 RS_GRID|   Bounds   3            -70      69                Points:         140
 RS_GRID| Real space fully replicated
 RS_GRID| Group size                                                           1

 RS_GRID| Information for grid number                                          4
 RS_GRID|   Bounds   1            -10       9                Points:          20
 RS_GRID|   Bounds   2            -10       9                Points:          20
 RS_GRID|   Bounds   3            -40      39                Points:          80
 RS_GRID| Real space fully replicated
 RS_GRID| Group size                                                           1

 KPOINTS| Number of kpoint groups                                              1
 KPOINTS| Size of each kpoint group                                          240
 KPOINTS| Number of kpoints per group                                          4

 Number of electrons:                                                       1184
 Number of occupied orbitals:                                                592
 Number of molecular orbitals:                                               692

 Number of orbital functions:                                                972
 Number of independent orbital functions:                                    972

 Extrapolation method: initial_guess


 SCF WAVEFUNCTION OPTIMIZATION

  Step     Update method      Time    Convergence         Total energy    Change
  ------------------------------------------------------------------------------
 Using HartreeLeadsBottom   0.0000000000000000     
 v_hartree_z_average(0)   0.0000000000000000     
     1 NoMix/SMGL  0.30E+00   88.0     1.41976454     -3518.0061040821 -3.52E+03
 Using HartreeLeadsBottom   0.0000000000000000     
 v_hartree_z_average(0)   0.0000000000000000     
     2 Broy./SMGL  0.30E+00   44.1     0.60582685     -3482.4515770028  3.56E+01
 Using HartreeLeadsBottom   0.0000000000000000     
 v_hartree_z_average(0)   0.0000000000000000     
     3 Broy./SMGL  0.30E+00   44.4     0.33696068     -3525.3078556441 -4.29E+01
 Using HartreeLeadsBottom   0.0000000000000000     
 v_hartree_z_average(0)   0.0000000000000000     
     4 Broy./SMGL  0.30E+00   43.7     0.14565901     -3516.1967780668  9.11E+00
 Using HartreeLeadsBottom   0.0000000000000000     
 v_hartree_z_average(0)   0.0000000000000000     
     5 Broy./SMGL  0.30E+00   44.1     0.04441740     -3518.7394505616 -2.54E+00
 Using HartreeLeadsBottom   0.0000000000000000     
 v_hartree_z_average(0)   0.0000000000000000     
     6 Broy./SMGL  0.30E+00   44.1     0.05758555     -3517.6569151490  1.08E+00
 Using HartreeLeadsBottom   0.0000000000000000     
 v_hartree_z_average(0)   0.0000000000000000     
     7 Broy./SMGL  0.30E+00   44.3     0.02429691     -3516.9365497438  7.20E-01
 Using HartreeLeadsBottom   0.0000000000000000     
 v_hartree_z_average(0)   0.0000000000000000     
     8 Broy./SMGL  0.30E+00   43.7     0.01072606     -3516.6440776403  2.92E-01
 Using HartreeLeadsBottom   0.0000000000000000     
 v_hartree_z_average(0)   0.0000000000000000     
     9 Broy./SMGL  0.30E+00   44.1     0.00381096     -3516.9080720033 -2.64E-01
 Using HartreeLeadsBottom   0.0000000000000000     
 v_hartree_z_average(0)   0.0000000000000000     
    10 Broy./SMGL  0.30E+00   44.0     0.00950875     -3516.8884443272  1.96E-02
 Using HartreeLeadsBottom   0.0000000000000000     
 v_hartree_z_average(0)   0.0000000000000000     
    11 Broy./SMGL  0.30E+00   44.2     0.00306057     -3517.0172647148 -1.29E-01
 Using HartreeLeadsBottom   0.0000000000000000     
 v_hartree_z_average(0)   0.0000000000000000     
    12 Broy./SMGL  0.30E+00   43.8     0.00194467     -3516.9832032545  3.41E-02
 Using HartreeLeadsBottom   0.0000000000000000     
 v_hartree_z_average(0)   0.0000000000000000     
    13 Broy./SMGL  0.30E+00   43.9     0.00197683     -3516.9762097015  6.99E-03
 Using HartreeLeadsBottom   0.0000000000000000     
 v_hartree_z_average(0)   0.0000000000000000     
    14 Broy./SMGL  0.30E+00   43.6     0.00148125     -3516.9822603883 -6.05E-03
 Using HartreeLeadsBottom   0.0000000000000000     
 v_hartree_z_average(0)   0.0000000000000000     
    15 Broy./SMGL  0.30E+00   44.2     0.00148460     -3516.9825584982 -2.98E-04
 Using HartreeLeadsBottom   0.0000000000000000     
 v_hartree_z_average(0)   0.0000000000000000     
    16 Broy./SMGL  0.30E+00   43.7     0.00010716     -3516.9835804149 -1.02E-03
 Using HartreeLeadsBottom   0.0000000000000000     
 v_hartree_z_average(0)   0.0000000000000000     
    17 Broy./SMGL  0.30E+00   44.6     0.00011600     -3516.9844130611 -8.33E-04
 Using HartreeLeadsBottom   0.0000000000000000     
 v_hartree_z_average(0)   0.0000000000000000     
    18 Broy./SMGL  0.30E+00   43.7     0.00146210     -3516.9842585300  1.55E-04
 Using HartreeLeadsBottom   0.0000000000000000     
 v_hartree_z_average(0)   0.0000000000000000     
    19 Broy./SMGL  0.30E+00   43.5     0.00146481     -3516.9837272821  5.31E-04
 Using HartreeLeadsBottom   0.0000000000000000     
 v_hartree_z_average(0)   0.0000000000000000     
    20 Broy./SMGL  0.30E+00   44.0     0.00001901     -3516.9842166526 -4.89E-04
 Using HartreeLeadsBottom   0.0000000000000000     
 v_hartree_z_average(0)   0.0000000000000000     
    21 Broy./SMGL  0.30E+00   43.6     0.00585065     -3516.9848492135 -6.33E-04
 Using HartreeLeadsBottom   0.0000000000000000     
 v_hartree_z_average(0)   0.0000000000000000     
    22 Broy./SMGL  0.30E+00   44.2     0.00585098     -3516.9847475409  1.02E-04
 Using HartreeLeadsBottom   0.0000000000000000     
 v_hartree_z_average(0)   0.0000000000000000     
    23 Broy./SMGL  0.30E+00   44.1     0.00001025     -3516.9849612876 -2.14E-04
 Using HartreeLeadsBottom   0.0000000000000000     
 v_hartree_z_average(0)   0.0000000000000000     
    24 Broy./SMGL  0.30E+00   43.5     0.00003193     -3516.9855299638 -5.69E-04
 Using HartreeLeadsBottom   0.0000000000000000     
 v_hartree_z_average(0)   0.0000000000000000     
    25 Broy./SMGL  0.30E+00   44.3     0.00208444     -3516.9855819853 -5.20E-05
 Using HartreeLeadsBottom   0.0000000000000000     
 v_hartree_z_average(0)   0.0000000000000000     
    26 Broy./SMGL  0.30E+00   43.6     0.00208476     -3516.9856339945 -5.20E-05
 Using HartreeLeadsBottom   0.0000000000000000     
 v_hartree_z_average(0)   0.0000000000000000     
    27 Broy./SMGL  0.30E+00   44.1     0.00103756     -3516.9856230043  1.10E-05
 Using HartreeLeadsBottom   0.0000000000000000     
 v_hartree_z_average(0)   0.0000000000000000     
    28 Broy./SMGL  0.30E+00   43.4     0.00000404     -3516.9855774972  4.55E-05
 Using HartreeLeadsBottom   0.0000000000000000     
 v_hartree_z_average(0)   0.0000000000000000     
    29 Broy./SMGL  0.30E+00   44.2     0.00011420     -3516.9855341401  4.34E-05
 Using HartreeLeadsBottom   0.0000000000000000     
 v_hartree_z_average(0)   0.0000000000000000     
    30 Broy./SMGL  0.30E+00   44.0     0.00011586     -3516.9855301857  3.95E-06
 Using HartreeLeadsBottom   0.0000000000000000     
 v_hartree_z_average(0)   0.0000000000000000     
    31 Broy./SMGL  0.30E+00   44.2     0.00010044     -3516.9855581410 -2.80E-05
 Using HartreeLeadsBottom   0.0000000000000000     
 v_hartree_z_average(0)   0.0000000000000000     
    32 Broy./SMGL  0.30E+00   43.4     0.00010044     -3516.9855601563 -2.02E-06
 Using HartreeLeadsBottom   0.0000000000000000     
 v_hartree_z_average(0)   0.0000000000000000     
    33 Broy./SMGL  0.30E+00   43.8     0.00000030     -3516.9855622451 -2.09E-06
 Using HartreeLeadsBottom   0.0000000000000000     
 v_hartree_z_average(0)   0.0000000000000000     
    34 Broy./SMGL  0.30E+00   44.0     0.00000057     -3516.9855645164 -2.27E-06
 Using HartreeLeadsBottom   0.0000000000000000     
 v_hartree_z_average(0)   0.0000000000000000     
    35 Broy./SMGL  0.30E+00   44.1     0.00011586     -3516.9855606102  3.91E-06
 Using HartreeLeadsBottom   0.0000000000000000     
 v_hartree_z_average(0)   0.0000000000000000     
    36 Broy./SMGL  0.30E+00   43.5     0.00000263     -3516.9855502953  1.03E-05
 Using HartreeLeadsBottom   0.0000000000000000     
 v_hartree_z_average(0)   0.0000000000000000     
    37 Broy./SMGL  0.30E+00   43.9     0.00200526     -3516.9855623934 -1.21E-05
 Using HartreeLeadsBottom   0.0000000000000000     
 v_hartree_z_average(0)   0.0000000000000000     
    38 Broy./SMGL  0.30E+00   43.2     0.00200556     -3516.9855544528  7.94E-06
 Using HartreeLeadsBottom   0.0000000000000000     
 v_hartree_z_average(0)   0.0000000000000000     
    39 Broy./SMGL  0.30E+00   44.6     0.00000040     -3516.9855595772 -5.12E-06
 Using HartreeLeadsBottom   0.0000000000000000     
 v_hartree_z_average(0)   0.0000000000000000     
    40 Broy./SMGL  0.30E+00   44.0     0.00000024     -3516.9855595203  5.69E-08
 Using HartreeLeadsBottom   0.0000000000000000     
 v_hartree_z_average(0)   0.0000000000000000     
    41 Broy./SMGL  0.30E+00   45.3     0.00000011     -3516.9855584739  1.05E-06
 Using HartreeLeadsBottom   0.0000000000000000     
 v_hartree_z_average(0)   0.0000000000000000     
    42 Broy./SMGL  0.30E+00   43.5     0.00001277     -3516.9855586599 -1.86E-07
 Using HartreeLeadsBottom   0.0000000000000000     
 v_hartree_z_average(0)   0.0000000000000000     
    43 Broy./SMGL  0.30E+00   44.0     0.00001277     -3516.9855583995  2.60E-07
 Using HartreeLeadsBottom   0.0000000000000000     
 v_hartree_z_average(0)   0.0000000000000000     
    44 Broy./SMGL  0.30E+00   43.8     0.00001277     -3516.9855591128 -7.13E-07
 Using HartreeLeadsBottom   0.0000000000000000     
 v_hartree_z_average(0)   0.0000000000000000     
    45 Broy./SMGL  0.30E+00   44.5     0.00000886     -3516.9855592693 -1.57E-07
 Using HartreeLeadsBottom   0.0000000000000000     
 v_hartree_z_average(0)   0.0000000000000000     
    46 Broy./SMGL  0.30E+00   43.7     0.00208446     -3516.9855592737 -4.41E-09
 Using HartreeLeadsBottom   0.0000000000000000     
 v_hartree_z_average(0)   0.0000000000000000     
    47 Broy./SMGL  0.30E+00   44.0     0.00208520     -3516.9855784271 -1.92E-05
 Using HartreeLeadsBottom   0.0000000000000000     
 v_hartree_z_average(0)   0.0000000000000000     
    48 Broy./SMGL  0.30E+00   44.0     0.00000103     -3516.9855588209  1.96E-05
 Using HartreeLeadsBottom   0.0000000000000000     
 v_hartree_z_average(0)   0.0000000000000000     
    49 Broy./SMGL  0.30E+00   44.2     0.00000038     -3516.9855599384 -1.12E-06
 Using HartreeLeadsBottom   0.0000000000000000     
 v_hartree_z_average(0)   0.0000000000000000     
    50 Broy./SMGL  0.30E+00   43.9     0.00000018     -3516.9855577919  2.15E-06
 Using HartreeLeadsBottom   0.0000000000000000     
 v_hartree_z_average(0)   0.0000000000000000     
    51 Broy./SMGL  0.30E+00   44.0     0.00121193     -3516.9855587427 -9.51E-07
 Using HartreeLeadsBottom   0.0000000000000000     
 v_hartree_z_average(0)   0.0000000000000000     
    52 Broy./SMGL  0.30E+00   43.4     0.00121208     -3516.9855592888 -5.46E-07
 Using HartreeLeadsBottom   0.0000000000000000     
 v_hartree_z_average(0)   0.0000000000000000     
    53 Broy./SMGL  0.30E+00   44.2     0.00000017     -3516.9855600320 -7.43E-07
 Using HartreeLeadsBottom   0.0000000000000000     
 v_hartree_z_average(0)   0.0000000000000000     
    54 Broy./SMGL  0.30E+00   43.7     0.00000008     -3516.9855591156  9.16E-07

  *** SCF run converged in    54 steps ***


  Electronic density on regular grids:      -1186.7923703246       -2.7923703246
  Core density on regular grids:             1183.9999998085       -0.0000001915
  Total charge density on r-space grids:       -2.7923705161
  Total charge density g-space grids:          -2.7923705161

  Overlap energy of the core charge distribution:               0.00001347459308
  Self energy of the core charge distribution:              -6148.38221378166963
  Core Hamiltonian energy:                                   1947.09214209689276
  Hartree energy:                                            1241.11805102409016
  Exchange-correlation energy:                               -556.81355192947944
  Electronic entropic energy:                                   0.00000000000000
  Fermi energy:                                                 0.00000000000000

  Total energy:                                             -3516.98555911557287

 The electron density is written in cube file format to the file:

 V-1.6-ELECTRON_DENSITY-1_0.cube

 !-----------------------------------------------------------------------------!
                     Mulliken Population Analysis

 #  Atom  Element  Kind  Atomic population                           Net charge
       1     Au       1         11.001795                             -0.001795
       2     Au       1         11.001801                             -0.001801
       3     Au       1         10.998716                              0.001284
       4     Au       1         11.002575                             -0.002575
       5     Au       1         10.999227                              0.000773
       6     Au       1         10.999230                              0.000770
       7     Au       1         10.998717                              0.001283
       8     Au       1         11.002555                             -0.002555
       9     Au       1         11.000671                             -0.000671
      10     Au       1         11.000133                             -0.000133
      11     Au       1         11.000192                             -0.000192
      12     Au       1         11.000197                             -0.000197
      13     Au       1         11.000758                             -0.000758
      14     Au       1         11.000921                             -0.000921
      15     Au       1         11.000197                             -0.000197
      16     Au       1         11.000203                             -0.000203
      17     Au       1         10.999875                              0.000125
      18     Au       1         10.999883                              0.000117
      19     Au       1         10.998407                              0.001593
      20     Au       1         10.999986                              0.000014
      21     Au       1         10.998523                              0.001477
      22     Au       1         10.998510                              0.001490
      23     Au       1         10.998387                              0.001613
      24     Au       1         10.999993                              0.000007
      25     Au       1         10.996435                              0.003565
      26     Au       1         10.988724                              0.011276
      27     Au       1         10.992574                              0.007426
      28     Au       1         10.992577                              0.007423
      29     Au       1         11.004871                             -0.004871
      30     Au       1         10.997137                              0.002863
      31     Au       1         10.992595                              0.007405
      32     Au       1         10.992598                              0.007402
      33     Au       1         11.142332                             -0.142332
      34     Au       1         11.142331                             -0.142331
      35     Au       1         11.135417                             -0.135417
      36     Au       1         11.142536                             -0.142536
      37     Au       1         11.134422                             -0.134422
      38     Au       1         11.134225                             -0.134225
      39     Au       1         11.135187                             -0.135187
      40     Au       1         11.142520                             -0.142520
      41     Au       1         10.899546                              0.100454
      42     Au       1         10.935901                              0.064099
      43     Au       1         10.918346                              0.081654
      44     Au       1         10.918265                              0.081735
      45     Au       1         10.925219                              0.074781
      46     Au       1         10.904116                              0.095884
      47     Au       1         10.918265                              0.081735
      48     Au       1         10.918184                              0.081816
      49     Au       1         11.171500                             -0.171500
      50     Au       1         11.172082                             -0.172082
      51     Au       1         11.306698                             -0.306698
      52     Au       1         11.166731                             -0.166731
      53     Au       1         11.276054                             -0.276054
      54     Au       1         11.276985                             -0.276985
      55     Au       1         11.307685                             -0.307685
      56     Au       1         11.166776                             -0.166776
      57     S        2          5.317409                              0.682591
      58     C        3          4.083567                             -0.083567
      59     H        4          0.841893                              0.158107
      60     H        4          0.841477                              0.158523
      61     C        3          4.110040                             -0.110040
      62     C        3          4.112263                             -0.112263
      63     C        3          4.118604                             -0.118604
      64     C        3          4.116372                             -0.116372
      65     H        4          0.852201                              0.147799
      66     H        4          0.852957                              0.147043
      67     C        3          4.095719                             -0.095719
      68     S        2          5.318102                              0.681898
      69     Au       1         11.103093                             -0.103093
      70     Au       1         11.102630                             -0.102630
      71     Au       1         11.237528                             -0.237528
      72     Au       1         11.098572                             -0.098572
      73     Au       1         11.211474                             -0.211474
      74     Au       1         11.211622                             -0.211622
      75     Au       1         11.238331                             -0.238331
      76     Au       1         11.098573                             -0.098573
      77     Au       1         11.085143                             -0.085143
      78     Au       1         11.092067                             -0.092067
      79     Au       1         11.083842                             -0.083842
      80     Au       1         11.083913                             -0.083913
      81     Au       1         11.095285                             -0.095285
      82     Au       1         11.087852                             -0.087852
      83     Au       1         11.083832                             -0.083832
      84     Au       1         11.083901                             -0.083901
      85     Au       1         10.986979                              0.013021
      86     Au       1         10.986911                              0.013089
      87     Au       1         10.988604                              0.011396
      88     Au       1         10.987464                              0.012536
      89     Au       1         10.988745                              0.011255
      90     Au       1         10.988674                              0.011326
      91     Au       1         10.988503                              0.011497
      92     Au       1         10.987423                              0.012577
      93     Au       1         10.996986                              0.003014
      94     Au       1         10.993399                              0.006601
      95     Au       1         10.996716                              0.003284
      96     Au       1         10.996721                              0.003279
      97     Au       1         10.999009                              0.000991
      98     Au       1         10.996814                              0.003186
      99     Au       1         10.996724                              0.003276
     100     Au       1         10.996729                              0.003271
     101     Au       1         11.000614                             -0.000614
     102     Au       1         11.000603                             -0.000603
     103     Au       1         10.998996                              0.001004
     104     Au       1         11.000905                             -0.000905
     105     Au       1         10.999124                              0.000876
     106     Au       1         10.999124                              0.000876
     107     Au       1         10.998993                              0.001007
     108     Au       1         11.000882                             -0.000882
     109     Au       1         11.003443                             -0.003443
     110     Au       1         10.994740                              0.005260
     111     Au       1         11.000790                             -0.000790
     112     Au       1         11.000885                             -0.000885
     113     Au       1         11.002287                             -0.002287
     114     Au       1         11.004262                             -0.004262
     115     Au       1         11.000838                             -0.000838
     116     Au       1         11.000933                             -0.000933
 # Total charge                           1186.792370                 -2.792370

 !-----------------------------------------------------------------------------!

 !-----------------------------------------------------------------------------!
                           Hirshfeld Charges

  #Atom  Element  Kind  Ref Charge     Population                    Net charge
      1       Au     1      11.000         11.001                        -0.001
      2       Au     1      11.000         11.001                        -0.001
      3       Au     1      11.000         11.002                        -0.002
      4       Au     1      11.000         11.001                        -0.001
      5       Au     1      11.000         11.002                        -0.002
      6       Au     1      11.000         11.002                        -0.002
      7       Au     1      11.000         11.002                        -0.002
      8       Au     1      11.000         11.001                        -0.001
      9       Au     1      11.000         11.000                        -0.000
     10       Au     1      11.000         11.000                         0.000
     11       Au     1      11.000         11.000                        -0.000
     12       Au     1      11.000         11.000                        -0.000
     13       Au     1      11.000         11.001                        -0.001
     14       Au     1      11.000         11.000                        -0.000
     15       Au     1      11.000         11.000                        -0.000
     16       Au     1      11.000         11.000                        -0.000
     17       Au     1      11.000         11.003                        -0.003
     18       Au     1      11.000         11.003                        -0.003
     19       Au     1      11.000         11.003                        -0.003
     20       Au     1      11.000         11.003                        -0.003
     21       Au     1      11.000         11.003                        -0.003
     22       Au     1      11.000         11.003                        -0.003
     23       Au     1      11.000         11.003                        -0.003
     24       Au     1      11.000         11.003                        -0.003
     25       Au     1      11.000         11.057                        -0.057
     26       Au     1      11.000         11.061                        -0.061
     27       Au     1      11.000         11.059                        -0.059
     28       Au     1      11.000         11.059                        -0.059
     29       Au     1      11.000         11.061                        -0.061
     30       Au     1      11.000         11.057                        -0.057
     31       Au     1      11.000         11.059                        -0.059
     32       Au     1      11.000         11.059                        -0.059
     33       Au     1      11.000         11.042                        -0.042
     34       Au     1      11.000         11.042                        -0.042
     35       Au     1      11.000         11.046                        -0.046
     36       Au     1      11.000         11.042                        -0.042
     37       Au     1      11.000         11.046                        -0.046
     38       Au     1      11.000         11.046                        -0.046
     39       Au     1      11.000         11.046                        -0.046
     40       Au     1      11.000         11.042                        -0.042
     41       Au     1      11.000         11.013                        -0.013
     42       Au     1      11.000         11.014                        -0.014
     43       Au     1      11.000         11.015                        -0.015
     44       Au     1      11.000         11.015                        -0.015
     45       Au     1      11.000         11.027                        -0.027
     46       Au     1      11.000         11.012                        -0.012
     47       Au     1      11.000         11.015                        -0.015
     48       Au     1      11.000         11.015                        -0.015
     49       Au     1      11.000         11.109                        -0.109
     50       Au     1      11.000         11.109                        -0.109
     51       Au     1      11.000         11.034                        -0.034
     52       Au     1      11.000         11.108                        -0.108
     53       Au     1      11.000         11.043                        -0.043
     54       Au     1      11.000         11.042                        -0.042
     55       Au     1      11.000         11.034                        -0.034
     56       Au     1      11.000         11.108                        -0.108
     57       S      2       6.000          5.956                         0.044
     58       C      3       4.000          4.009                        -0.009
     59       H      4       1.000          0.964                         0.036
     60       H      4       1.000          0.963                         0.037
     61       C      3       4.000          4.052                        -0.052
     62       C      3       4.000          4.053                        -0.053
     63       C      3       4.000          4.060                        -0.060
     64       C      3       4.000          4.060                        -0.060
     65       H      4       1.000          0.968                         0.032
     66       H      4       1.000          0.969                         0.031
     67       C      3       4.000          4.023                        -0.023
     68       S      2       6.000          5.942                         0.058
     69       Au     1      11.000         11.082                        -0.082
     70       Au     1      11.000         11.082                        -0.082
     71       Au     1      11.000         11.015                        -0.015
     72       Au     1      11.000         11.082                        -0.082
     73       Au     1      11.000         11.023                        -0.023
     74       Au     1      11.000         11.023                        -0.023
     75       Au     1      11.000         11.015                        -0.015
     76       Au     1      11.000         11.082                        -0.082
     77       Au     1      11.000         11.038                        -0.038
     78       Au     1      11.000         11.039                        -0.039
     79       Au     1      11.000         11.038                        -0.038
     80       Au     1      11.000         11.038                        -0.038
     81       Au     1      11.000         11.050                        -0.050
     82       Au     1      11.000         11.039                        -0.039
     83       Au     1      11.000         11.038                        -0.038
     84       Au     1      11.000         11.038                        -0.038
     85       Au     1      11.000         11.056                        -0.056
     86       Au     1      11.000         11.056                        -0.056
     87       Au     1      11.000         11.059                        -0.059
     88       Au     1      11.000         11.056                        -0.056
     89       Au     1      11.000         11.059                        -0.059
     90       Au     1      11.000         11.059                        -0.059
     91       Au     1      11.000         11.059                        -0.059
     92       Au     1      11.000         11.056                        -0.056
     93       Au     1      11.000         11.003                        -0.003
     94       Au     1      11.000         11.001                        -0.001
     95       Au     1      11.000         11.002                        -0.002
     96       Au     1      11.000         11.002                        -0.002
     97       Au     1      11.000         11.004                        -0.004
     98       Au     1      11.000         11.003                        -0.003
     99       Au     1      11.000         11.002                        -0.002
    100       Au     1      11.000         11.002                        -0.002
    101       Au     1      11.000         11.000                        -0.000
    102       Au     1      11.000         11.000                        -0.000
    103       Au     1      11.000         11.000                         0.000
    104       Au     1      11.000         11.000                        -0.000
    105       Au     1      11.000         11.000                         0.000
    106       Au     1      11.000         11.000                         0.000
    107       Au     1      11.000         11.000                         0.000
    108       Au     1      11.000         11.000                        -0.000
    109       Au     1      11.000         10.999                         0.001
    110       Au     1      11.000         11.005                        -0.005
    111       Au     1      11.000         11.000                         0.000
    112       Au     1      11.000         11.000                         0.000
    113       Au     1      11.000         10.999                         0.001
    114       Au     1      11.000         11.000                         0.000
    115       Au     1      11.000         11.000                         0.000
    116       Au     1      11.000         11.000                         0.000

  Total Charge                                                           -2.792
 !-----------------------------------------------------------------------------!
 Calculating transmission coefficient

 ENERGY| Total FORCE_EVAL ( QS ) energy [a.u.]:            -3516.985559115572869

 -------------------------------------------------------------------------------
 -                                                                             -
 -                                DBCSR STATISTICS                             -
 -                                                                             -
 -------------------------------------------------------------------------------
 COUNTER                                    TOTAL       BLAS       SMM       ACC
 flops inhomo. stacks                           0       0.0%      0.0%      0.0%
 flops total                         0.000000E+00       0.0%      0.0%      0.0%
 flops max/rank                      0.000000E+00       0.0%      0.0%      0.0%
 matmuls inhomo. stacks                         0       0.0%      0.0%      0.0%
 matmuls total                                  0       0.0%      0.0%      0.0%
 number of processed stacks                     0       0.0%      0.0%      0.0%
 average stack size                                     0.0       0.0       0.0
 marketing flops                     0.000000E+00
 -------------------------------------------------------------------------------
 -                                                                             -
 -                      DBCSR MESSAGE PASSING PERFORMANCE                      -
 -                                                                             -
 -------------------------------------------------------------------------------
 ROUTINE             CALLS      AVE VOLUME [Bytes]
 MP_Bcast                1                     12.
 MP_Allreduce         4555                      8.
 MP_Alltoall          3642                 173945.
 -------------------------------------------------------------------------------

 -------------------------------------------------------------------------------
 -                                                                             -
 -                                DBM STATISTICS                               -
 -                                                                             -
 -------------------------------------------------------------------------------
    M  x    N  x    K                                          COUNT     PERCENT
 -------------------------------------------------------------------------------

 -------------------------------------------------------------------------------
 -                                                                             -
 -                                GRID STATISTICS                              -
 -                                                                             -
 -------------------------------------------------------------------------------
 LP    KERNEL             BACKEND                              COUNT     PERCENT
 4     collocate ortho    REF                                5228960      44.28%
 4     integrate ortho    REF                                5133888      43.47%
 0     collocate general  REF                                 250560       2.12%
 3     collocate ortho    REF                                 250305       2.12%
 3     integrate ortho    REF                                 245754       2.08%
 0     integrate general  REF                                 222720       1.89%
 2     collocate ortho    REF                                 180455       1.53%
 2     integrate ortho    REF                                 177174       1.50%
 1     collocate ortho    REF                                  45100       0.38%
 1     integrate ortho    REF                                  44280       0.37%
 0     collocate ortho    REF                                  15510       0.13%
 0     integrate ortho    REF                                  15228       0.13%
 -------------------------------------------------------------------------------

 MEMORY| Estimated peak process memory [MiB]                                 861

 -------------------------------------------------------------------------------
 ----                             MULTIGRID INFO                            ----
 -------------------------------------------------------------------------------
 count for grid        1:         403725          cutoff [a.u.]          200.00
 count for grid        2:         625157          cutoff [a.u.]           66.67
 count for grid        3:         344958          cutoff [a.u.]           22.22
 count for grid        4:         152886          cutoff [a.u.]            7.41
 total gridlevel count  :        1526726

 -------------------------------------------------------------------------------
 -                                                                             -
 -                         MESSAGE PASSING PERFORMANCE                         -
 -                                                                             -
 -------------------------------------------------------------------------------

 ROUTINE             CALLS      AVE VOLUME [Bytes]
 MP_Group                5
 MP_Bcast            54218                  18741.
 MP_Allreduce         3981                 894145.
 MP_Sync               658
 MP_Alltoall           997
 MP_ISendRecv        52102                   4000.
 MP_Wait             64239
 MP_ISend            17635                  37438.
 MP_IRecv            17733                  37246.
 MP_Recv              3780                 248832.
 MP_Write_All            2                 248850.
 -------------------------------------------------------------------------------


 -------------------------------------------------------------------------------
 -                                                                             -
 -                           R E F E R E N C E S                               -
 -                                                                             -
 -------------------------------------------------------------------------------
 
 CP2K version 2022.1 (Development Version), the CP2K developers group (2022).
 CP2K is freely available from https://www.cp2k.org/ .

 Kuehne,Thomas D.; Iannuzzi,Marcella; Del Ben,Mauro;
 Rybkin,Vladimir V.; Seewald,Patrick; Stein,Frederick; Laino,Teodoro;
 Khaliullin,Rustam Z.; Schuett,Ole; Schiffmann,Florian; Golze,Dorothea;
 Wilhelm,Jan; Chulkov,Sergey; Bani-Hashemian,Mohammad Hossein;
 Weber,Valery; Borstnik,Urban; Taillefumier,Mathieu;
 Jakobovits,Alice Shoshana; Lazzaro,Alfio; Pabst,Hans; Mueller,Tiziano;
 Schade,Robert; Guidon,Manuel; Andermatt,Samuel; Holmberg,Nico;
 Schenter,Gregory K.; Hehn,Anna; Bussy,Augustin; Belleflamme,Fabian;
 Tabacchi,Gloria; Gloess,Andreas; Lass,Michael; Bethune,Iain;
 Mundy,Christopher J.; Plessl,Christian; Watkins,Matt;
 VandeVondele,Joost; Krack,Matthias; Hutter,Juerg. 
 The Journal of Chemical Physics, 152 (19), (2020). 
 CP2K: An electronic structure and molecular dynamics software package -
 Quickstep: Efficient and accurate electronic structure calculations.
 https://doi.org/10.1063/5.0007045

 Togo, Atsushi; Tanaka, Isao. arXiv, 1808.01590 (2018). 
 Spglib : a software library for crystal symmetry search.
 https://doi.org/xxx

 Schuett, Ole; Messmer, Peter; Hutter, Juerg; VandeVondele, Joost. 
 Electronic Structure Calculations on Graphics Processing Units, John
 Wiley & Sons, Ltd, 173-190 (2016). 
 GPU-Accelerated Sparse Matrix-Matrix Multiplication for
 Linear Scaling Density Functional Theory.
 https://doi.org/10.1002/9781118670712.ch8

 Heinecke, A; Henry, G; Hutchinson, M; Pabst, H. 
 Proceedings of Intl. Supercomputing Conference, 981-991 (2016). 
 LIBXSMM: Accelerating Small Matrix Multiplications
 by Runtime Code Generation.
 https://doi.org/10.1109/SC.2016.83

 Borstnik, U; VandeVondele, J; Weber, V; Hutter, J. 
 PARALLEL COMPUTING, 40 (5-6), 47-58 (2014). 
 Sparse matrix multiplication: The distributed block-compressed sparse
 row library.
 https://doi.org/10.1016/j.parco.2014.03.012

 Hutter, J; Iannuzzi, M; Schiffmann, F; VandeVondele, J. 
 WIREs Comput Mol Sci., 4 (1), 15-25 (2014). 
 CP2K: atomistic simulations of condensed matter systems.
 https://doi.org/10.1002/wcms.1159

 VandeVondele, J; Hutter, J. 
 JOURNAL OF CHEMICAL PHYSICS, 127 (11), 114105 (2007). 
 Gaussian basis sets for accurate calculations on molecular systems in
 gas and condensed phases.
 https://doi.org/10.1063/1.2770708

 Krack, M. 
 THEORETICAL CHEMISTRY ACCOUNTS, 114 (1-3), 145-152 (2005). 
 Pseudopotentials for H to Kr optimized for gradient-corrected
 exchange-correlation functionals.
 https://doi.org/10.1007/s00214-005-0655-y

 VandeVondele, J; Krack, M; Mohamed, F; Parrinello, M; Chassaing, T;
 Hutter, J. COMPUTER PHYSICS COMMUNICATIONS, 167 (2), 103-128 (2005). 
 QUICKSTEP: Fast and accurate density functional calculations using a
 mixed Gaussian and plane waves approach.
 https://doi.org/10.1016/j.cpc.2004.12.014

 Frigo, M; Johnson, SG. 
 PROCEEDINGS OF THE IEEE, 93 (2), 216-231 (2005). 
 The design and implementation of FFTW3.
 https://doi.org/10.1109/JPROC.2004.840301

 Hartwigsen, C; Goedecker, S; Hutter, J. 
 PHYSICAL REVIEW B, 58 (7), 3641-3662 (1998). 
 Relativistic separable dual-space Gaussian pseudopotentials from H to Rn.
 https://doi.org/10.1103/PhysRevB.58.3641

 Lippert, G; Hutter, J; Parrinello, M. 
 MOLECULAR PHYSICS, 92 (3), 477-487 (1997). 
 A hybrid Gaussian and plane wave density functional scheme.
 https://doi.org/10.1080/002689797170220

 Goedecker, S; Teter, M; Hutter, J. 
 PHYSICAL REVIEW B, 54 (3), 1703-1710 (1996). 
 Separable dual-space Gaussian pseudopotentials.
 https://doi.org/10.1103/PhysRevB.54.1703


 -------------------------------------------------------------------------------
 -                                                                             -
 -                                T I M I N G                                  -
 -                                                                             -
 -------------------------------------------------------------------------------
 SUBROUTINE                       CALLS  ASD         SELF TIME        TOTAL TIME
                                MAXIMUM       AVERAGE  MAXIMUM  AVERAGE  MAXIMUM
 CP2K                                 1  1.0    0.029    0.044 2476.615 2476.622
 qs_energies                          1  2.0    0.000    0.000 2476.382 2476.395
 run_smeagol_emtrans                 55  5.9 2357.032 2396.050 2463.534 2464.647
 scf_env_do_scf                       1  3.0    0.000    0.000 2420.020 2420.068
 scf_env_do_scf_inner_loop           54  4.0    0.004    0.174 2420.020 2420.068
 qs_scf_new_mos_kp                   54  5.0    0.001    0.001 2409.494 2410.600
 -------------------------------------------------------------------------------

 The number of warnings for this run is : 0
 
 -------------------------------------------------------------------------------
  **** **** ******  **  PROGRAM ENDED AT                 2023-02-25 08:58:57.212
 ***** ** ***  *** **   PROGRAM RAN ON                     cn1096.scarf.rl.ac.uk
 **    ****   ******    PROGRAM RAN BY                                 scarf1157
 ***** **    ** ** **   PROGRAM PROCESS ID                                 34630
  **** **  *******  **  PROGRAM STOPPED IN /work4/scd/scarf1157/work/testing/cp2
                                           k-smeagol/bdt/cp2k/hollow-site/transp
                                           ort-cp2k/5-4/geometry-ordered/3x3-4/s
                                           z/bulk_layers-4/iv/kpoints_bulk-2-2-1
                                           00_em-2-2-1_2
