 DBCSR| CPU Multiplication driver                                           XSMM
 DBCSR| Multrec recursion limit                                              512
 DBCSR| Multiplication stack size                                           1000
 DBCSR| Maximum elements for images                                    UNLIMITED
 DBCSR| Multiplicative factor virtual images                                   1
 DBCSR| Use multiplication densification                                       T
 DBCSR| Multiplication size stacks                                             3
 DBCSR| Use memory pool for CPU allocation                                     F
 DBCSR| Number of 3D layers                                               SINGLE
 DBCSR| Use MPI memory allocation                                              F
 DBCSR| Use RMA algorithm                                                      F
 DBCSR| Use Communication thread                                               T
 DBCSR| Communication thread load                                             87
 DBCSR| MPI: My node id                                                        0
 DBCSR| MPI: Number of nodes                                                 240
 DBCSR| OMP: Current number of threads                                         1
 DBCSR| OMP: Max number of threads                                             1
 DBCSR| Split modifier for TAS multiplication algorithm                  1.0E+00


  **** **** ******  **  PROGRAM STARTED AT               2023-02-17 11:54:17.416
 ***** ** ***  *** **   PROGRAM STARTED ON                 cn1140.scarf.rl.ac.uk
 **    ****   ******    PROGRAM STARTED BY                             scarf1157
 ***** **    ** ** **   PROGRAM PROCESS ID                                 11129
  **** **  *******  **  PROGRAM STARTED IN /work4/scd/scarf1157/work/testing/cp2
                                           k-smeagol/bdt/cp2k/hollow-site/transp
                                           ort-cp2k/5-4/geometry-ordered/3x3-4/s
                                           z/kpoints_bulk-31_em-1-1-1

 CP2K| version string:                 CP2K version 2022.1 (Development Version)
 CP2K| source code revision number:                                  git:1ef701d
 CP2K| cp2kflags: omp fftw3 libxc parallel mpi3 scalapack xsmm spglib           
 CP2K| is freely available from                            https://www.cp2k.org/
 CP2K| Program compiled at                          Thu 26 Jan 13:39:53 GMT 2023
 CP2K| Program compiled on                                 cn1108.scarf.rl.ac.uk
 CP2K| Program compiled for                                                local
 CP2K| Data directory path    /home/vol07/scarf1157/code/smeagol/cp2k-smeagol/sc
 CP2K| Input file name                                                  3_0V.inp

 GLOBAL| Force Environment number                                              1
 GLOBAL| Basis set file name                                        BASIS_MOLOPT
 GLOBAL| Potential file name                                      GTH_POTENTIALS
 GLOBAL| MM Potential file name                                     MM_POTENTIAL
 GLOBAL| Coordinate file name                                             em.xyz
 GLOBAL| Method name                                                        CP2K
 GLOBAL| Project name                                                         0V
 GLOBAL| Run type                                                         ENERGY
 GLOBAL| FFT library                                                       FFTW3
 GLOBAL| Diagonalization library                                       ScaLAPACK
 GLOBAL| Orthonormality check for eigenvectors                          DISABLED
 GLOBAL| Matrix multiplication library                                 ScaLAPACK
 GLOBAL| All-to-all communication in single precision                          F
 GLOBAL| FFTs using library dependent lengths                                  T
 GLOBAL| Grid backend                                                       AUTO
 GLOBAL| Global print level                                               MEDIUM
 GLOBAL| MPI I/O enabled                                                       T
 GLOBAL| Total number of message passing processes                           240
 GLOBAL| Number of threads for this process                                    1
 GLOBAL| This output is from process                                           0
 GLOBAL| Stack size for threads created by OpenMP (OMP_STACKSIZE)        default
 GLOBAL| CPU model name                         AMD EPYC 7502P 32-Core Processor
 GLOBAL| CPUID                                                              1002

 MEMORY| system memory details [Kb]
 MEMORY|                        rank 0           min           max       average
 MEMORY| MemTotal            263897004     263896980     263897004     263896984
 MEMORY| MemFree             171960564      88549040     240704656     193497026
 MEMORY| Buffers                  2568          2560          3452          2677
 MEMORY| Cached               71915672       7974100     159203776      54094584
 MEMORY| Slab                  2138240       1043200       2138240       1479382
 MEMORY| SReclaimable          1199536        532848       1359884        851420
 MEMORY| MemLikelyFree       245078340     245078340     249215056     248445708


 *** Fundamental physical constants (SI units) ***

 *** Literature: B. J. Mohr and B. N. Taylor,
 ***             CODATA recommended values of the fundamental physical
 ***             constants: 2006, Web Version 5.1
 ***             http://physics.nist.gov/constants

 Speed of light in vacuum [m/s]                             2.99792458000000E+08
 Magnetic constant or permeability of vacuum [N/A**2]       1.25663706143592E-06
 Electric constant or permittivity of vacuum [F/m]          8.85418781762039E-12
 Planck constant (h) [J*s]                                  6.62606896000000E-34
 Planck constant (h-bar) [J*s]                              1.05457162825177E-34
 Elementary charge [C]                                      1.60217648700000E-19
 Electron mass [kg]                                         9.10938215000000E-31
 Electron g factor [ ]                                     -2.00231930436220E+00
 Proton mass [kg]                                           1.67262163700000E-27
 Fine-structure constant                                    7.29735253760000E-03
 Rydberg constant [1/m]                                     1.09737315685270E+07
 Avogadro constant [1/mol]                                  6.02214179000000E+23
 Boltzmann constant [J/K]                                   1.38065040000000E-23
 Atomic mass unit [kg]                                      1.66053878200000E-27
 Bohr radius [m]                                            5.29177208590000E-11

 *** Conversion factors ***

 [u] -> [a.u.]                                              1.82288848426455E+03
 [Angstrom] -> [Bohr] = [a.u.]                              1.88972613288564E+00
 [a.u.] = [Bohr] -> [Angstrom]                              5.29177208590000E-01
 [a.u.] -> [s]                                              2.41888432650478E-17
 [a.u.] -> [fs]                                             2.41888432650478E-02
 [a.u.] -> [J]                                              4.35974393937059E-18
 [a.u.] -> [N]                                              8.23872205491840E-08
 [a.u.] -> [K]                                              3.15774647902944E+05
 [a.u.] -> [kJ/mol]                                         2.62549961709828E+03
 [a.u.] -> [kcal/mol]                                       6.27509468713739E+02
 [a.u.] -> [Pa]                                             2.94210107994716E+13
 [a.u.] -> [bar]                                            2.94210107994716E+08
 [a.u.] -> [atm]                                            2.90362800883016E+08
 [a.u.] -> [eV]                                             2.72113838565563E+01
 [a.u.] -> [Hz]                                             6.57968392072181E+15
 [a.u.] -> [1/cm] (wave numbers)                            2.19474631370540E+05
 [a.u./Bohr**2] -> [1/cm]                                   5.14048714338585E+03
 

 CELL_TOP| Volume [angstrom^3]:                                      4009.343578
 CELL_TOP| Vector a [angstrom    12.514     0.000     0.000   |a| =    12.513863
 CELL_TOP| Vector b [angstrom     0.000    12.514     0.000   |b| =    12.513863
 CELL_TOP| Vector c [angstrom     0.000     0.000    25.603   |c| =    25.602980
 CELL_TOP| Angle (b,c), alpha [degree]:                                90.000000
 CELL_TOP| Angle (a,c), beta  [degree]:                                90.000000
 CELL_TOP| Angle (a,b), gamma [degree]:                                90.000000
 CELL_TOP| Numerically orthorhombic:                                         YES
 CELL_TOP| Periodicity                                                       XYZ

 GENERATE|  Preliminary Number of Bonds generated:                             0
 GENERATE|  Achieved consistency in connectivity generation.

 CELL| Volume [angstrom^3]:                                          4009.343578
 CELL| Vector a [angstrom]:      12.514     0.000     0.000   |a| =    12.513863
 CELL| Vector b [angstrom]:       0.000    12.514     0.000   |b| =    12.513863
 CELL| Vector c [angstrom]:       0.000     0.000    25.603   |c| =    25.602980
 CELL| Angle (b,c), alpha [degree]:                                    90.000000
 CELL| Angle (a,c), beta  [degree]:                                    90.000000
 CELL| Angle (a,b), gamma [degree]:                                    90.000000
 CELL| Numerically orthorhombic:                                             YES
 CELL| Periodicity                                                           XYZ

 CELL_REF| Volume [angstrom^3]:                                      4009.343578
 CELL_REF| Vector a [angstrom    12.514     0.000     0.000   |a| =    12.513863
 CELL_REF| Vector b [angstrom     0.000    12.514     0.000   |b| =    12.513863
 CELL_REF| Vector c [angstrom     0.000     0.000    25.603   |c| =    25.602980
 CELL_REF| Angle (b,c), alpha [degree]:                                90.000000
 CELL_REF| Angle (a,c), beta  [degree]:                                90.000000
 CELL_REF| Angle (a,b), gamma [degree]:                                90.000000
 CELL_REF| Numerically orthorhombic:                                         YES
 CELL_REF| Periodicity                                                       XYZ

 *******************************************************************************
                                    Kpoints
 *******************************************************************************
 BRILLOUIN| K-point scheme                                        Monkhorst-Pack
 BRILLOUIN| K-Point grid                                             1    1    1
 BRILLOUIN| Accuracy in Symmetry determination                      0.100000E-07
 BRILLOUIN| K-Point point group symmetrization                               OFF
 BRILLOUIN| Wavefunction type                                            COMPLEX
 BRILLOUIN| Use full k-point grid     
 BRILLOUIN| List of Kpoints [2 Pi/Bohr]                                        1
 BRILLOUIN| Number           Weight            X              Y              Z
 BRILLOUIN|     1           1.00000        0.00000        0.00000        0.00000
 *******************************************************************************

 *******************************************************************************
 *******************************************************************************
 **                                                                           **
 **     #####                         ##              ##                      **
 **    ##   ##            ##          ##              ##                      **
 **   ##     ##                       ##            ######                    **
 **   ##     ##  ##   ##  ##   #####  ##  ##   ####   ##    #####    #####    **
 **   ##     ##  ##   ##  ##  ##      ## ##   ##      ##   ##   ##  ##   ##   **
 **   ##  ## ##  ##   ##  ##  ##      ####     ###    ##   ######   ######    **
 **    ##  ###   ##   ##  ##  ##      ## ##      ##   ##   ##       ##        **
 **     #######   #####   ##   #####  ##  ##  ####    ##    #####   ##        **
 **           ##                                                    ##        **
 **                                                                           **
 **                                                ... make the atoms dance   **
 **                                                                           **
 **            Copyright (C) by CP2K developers group (2000-2022)             **
 **                      J. Chem. Phys. 152, 194103 (2020)                    **
 **                                                                           **
 *******************************************************************************

 DFT| Spin restricted Kohn-Sham (RKS) calculation                            RKS
 DFT| Multiplicity                                                             1
 DFT| Number of spin states                                                    1
 DFT| Charge                                                                   0
 DFT| Self-interaction correction (SIC)                                       NO
 DFT| Cutoffs: density                                              1.000000E-10
 DFT|          gradient                                             1.000000E-10
 DFT|          tau                                                  1.000000E-10
 DFT|          cutoff_smoothing_range                               0.000000E+00
 DFT| XC density smoothing                                                  NONE
 DFT| XC derivatives                                                          PW

 FUNCTIONAL| PADE:
 FUNCTIONAL| S. Goedecker, M. Teter and J. Hutter, Phys. Rev. B 54, 1703 (1996) 


 QS| Method:                                                                 GPW
 QS| Density plane wave grid type                        NON-SPHERICAL FULLSPACE
 QS| Number of grid levels:                                                    4
 QS| Density cutoff [a.u.]:                                                200.0
 QS| Multi grid cutoff [a.u.]: 1) grid level                               200.0
 QS|                           2) grid level                                66.7
 QS|                           3) grid level                                22.2
 QS|                           4) grid level                                 7.4
 QS| Grid level progression factor:                                          3.0
 QS| Relative density cutoff [a.u.]:                                        20.0
 QS| Interaction thresholds: eps_pgf_orb:                                1.0E-05
 QS|                         eps_filter_matrix:                          0.0E+00
 QS|                         eps_core_charge:                            1.0E-12
 QS|                         eps_rho_gspace:                             1.0E-10
 QS|                         eps_rho_rspace:                             1.0E-10
 QS|                         eps_gvg_rspace:                             1.0E-05
 QS|                         eps_ppl:                                    1.0E-02
 QS|                         eps_ppnl:                                   1.0E-07


 ATOMIC KIND INFORMATION

  1. Atomic kind: Au                                    Number of atoms:     162

     Orbital Basis Set                                         SZV-MOLOPT-SR-GTH

       Number of orbital shell sets:                                           1
       Number of orbital shells:                                               3
       Number of primitive Cartesian functions:                                5
       Number of Cartesian basis functions:                                   10
       Number of spherical basis functions:                                    9
       Norm type:                                                              2

       Normalised Cartesian orbitals:

                        Set   Shell   Orbital            Exponent    Coefficient

                          1       1    2s                2.950008       0.074626
                                                         1.563057      -0.007898
                                                         0.666664      -0.297688
                                                         0.251083       0.136809
                                                         0.081714       0.088198

                          1       2    3px               2.950008       0.148824
                                                         1.563057       0.025430
                                                         0.666664      -0.123003
                                                         0.251083       0.033648
                                                         0.081714       0.059008
                          1       2    3py               2.950008       0.148824
                                                         1.563057       0.025430
                                                         0.666664      -0.123003
                                                         0.251083       0.033648
                                                         0.081714       0.059008
                          1       2    3pz               2.950008       0.148824
                                                         1.563057       0.025430
                                                         0.666664      -0.123003
                                                         0.251083       0.033648
                                                         0.081714       0.059008

                          1       3    4dx2              2.950008      -0.139595
                                                         1.563057       1.319655
                                                         0.666664       0.377081
                                                         0.251083       0.046872
                                                         0.081714       0.001393
                          1       3    4dxy              2.950008      -0.241786
                                                         1.563057       2.285709
                                                         0.666664       0.653124
                                                         0.251083       0.081185
                                                         0.081714       0.002412
                          1       3    4dxz              2.950008      -0.241786
                                                         1.563057       2.285709
                                                         0.666664       0.653124
                                                         0.251083       0.081185
                                                         0.081714       0.002412
                          1       3    4dy2              2.950008      -0.139595
                                                         1.563057       1.319655
                                                         0.666664       0.377081
                                                         0.251083       0.046872
                                                         0.081714       0.001393
                          1       3    4dyz              2.950008      -0.241786
                                                         1.563057       2.285709
                                                         0.666664       0.653124
                                                         0.251083       0.081185
                                                         0.081714       0.002412
                          1       3    4dz2              2.950008      -0.139595
                                                         1.563057       1.319655
                                                         0.666664       0.377081
                                                         0.251083       0.046872
                                                         0.081714       0.001393

       Atomic covalent radius [Angstrom]:                                  1.340

       Atomic van der Waals radius [Angstrom]:                             1.660

     GTH Potential information for                                  GTH-PADE-q11

       Description:                       Goedecker-Teter-Hutter pseudopotential
                                           Goedecker et al., PRB 54, 1703 (1996)
                                          Hartwigsen et al., PRB 58, 3641 (1998)
                                                      Krack, TCA 114, 145 (2005)

       Gaussian exponent of the core charge distribution:               1.436369
       Electronic configuration (s p d ...):                           1   0  10

       Parameters of the local part of the GTH pseudopotential:

                          rloc        C1          C2          C3          C4
                        0.590000   11.604428

       Parameters of the non-local part of the GTH pseudopotential:

                   l      r(l)      h(i,j,l)

                   0    0.521180    2.538614   -1.046137
                                   -1.046137    2.701113
                   1    0.630613    0.394853   -0.869592
                                   -0.869592    2.057831
                   2    0.440706   -4.719070    0.727771
                                    0.727771   -1.650429

  2. Atomic kind: S                                     Number of atoms:       2

     Orbital Basis Set                                        DZVP-MOLOPT-SR-GTH

       Number of orbital shell sets:                                           1
       Number of orbital shells:                                               5
       Number of primitive Cartesian functions:                                4
       Number of Cartesian basis functions:                                   14
       Number of spherical basis functions:                                   13
       Norm type:                                                              2

       Normalised Cartesian orbitals:

                        Set   Shell   Orbital            Exponent    Coefficient

                          1       1    2s                2.215855       0.308496
                                                         1.131471       0.138505
                                                         0.410168      -0.373736
                                                         0.140587      -0.040370

                          1       2    3s                2.215855      -0.329528
                                                         1.131471      -0.517509
                                                         0.410168       0.787368
                                                         0.140587      -0.322786

                          1       3    3px               2.215855       0.420434
                                                         1.131471      -0.319283
                                                         0.410168      -0.335323
                                                         0.140587      -0.030976
                          1       3    3py               2.215855       0.420434
                                                         1.131471      -0.319283
                                                         0.410168      -0.335323
                                                         0.140587      -0.030976
                          1       3    3pz               2.215855       0.420434
                                                         1.131471      -0.319283
                                                         0.410168      -0.335323
                                                         0.140587      -0.030976

                          1       4    4px               2.215855       0.241296
                                                         1.131471      -0.170582
                                                         0.410168      -0.186977
                                                         0.140587       0.153509
                          1       4    4py               2.215855       0.241296
                                                         1.131471      -0.170582
                                                         0.410168      -0.186977
                                                         0.140587       0.153509
                          1       4    4pz               2.215855       0.241296
                                                         1.131471      -0.170582
                                                         0.410168      -0.186977
                                                         0.140587       0.153509

                          1       5    4dx2              2.215855       0.573559
                                                         1.131471       0.544926
                                                         0.410168       0.228284
                                                         0.140587       0.008811
                          1       5    4dxy              2.215855       0.993434
                                                         1.131471       0.943840
                                                         0.410168       0.395400
                                                         0.140587       0.015260
                          1       5    4dxz              2.215855       0.993434
                                                         1.131471       0.943840
                                                         0.410168       0.395400
                                                         0.140587       0.015260
                          1       5    4dy2              2.215855       0.573559
                                                         1.131471       0.544926
                                                         0.410168       0.228284
                                                         0.140587       0.008811
                          1       5    4dyz              2.215855       0.993434
                                                         1.131471       0.943840
                                                         0.410168       0.395400
                                                         0.140587       0.015260
                          1       5    4dz2              2.215855       0.573559
                                                         1.131471       0.544926
                                                         0.410168       0.228284
                                                         0.140587       0.008811

       Atomic covalent radius [Angstrom]:                                  1.020

       Atomic van der Waals radius [Angstrom]:                             1.800

     GTH Potential information for                                   GTH-PADE-q6

       Description:                       Goedecker-Teter-Hutter pseudopotential
                                           Goedecker et al., PRB 54, 1703 (1996)
                                          Hartwigsen et al., PRB 58, 3641 (1998)
                                                      Krack, TCA 114, 145 (2005)

       Gaussian exponent of the core charge distribution:               2.834467
       Electronic configuration (s p d ...):                               2   4

       Parameters of the local part of the GTH pseudopotential:

                          rloc        C1          C2          C3          C4
                        0.420000   -6.554492

       Parameters of the non-local part of the GTH pseudopotential:

                   l      r(l)      h(i,j,l)

                   0    0.361757    7.905303   -1.731881
                                   -1.731881    4.471698
                   1    0.405285    3.866579

  3. Atomic kind: C                                     Number of atoms:       6

     Orbital Basis Set                                        DZVP-MOLOPT-SR-GTH

       Number of orbital shell sets:                                           1
       Number of orbital shells:                                               5
       Number of primitive Cartesian functions:                                5
       Number of Cartesian basis functions:                                   14
       Number of spherical basis functions:                                   13
       Norm type:                                                              2

       Normalised Cartesian orbitals:

                        Set   Shell   Orbital            Exponent    Coefficient

                          1       1    2s                5.605331       0.322515
                                                         2.113016       0.213043
                                                         0.769911      -0.209686
                                                         0.348157      -0.219794
                                                         0.128212      -0.022789

                          1       2    3s                5.605331       0.552234
                                                         2.113016       0.082072
                                                         0.769911       0.007843
                                                         0.348157       0.136893
                                                         0.128212       0.074283

                          1       3    3px               5.605331      -0.703879
                                                         2.113016      -0.642521
                                                         0.769911      -0.374851
                                                         0.348157      -0.139743
                                                         0.128212      -0.027849
                          1       3    3py               5.605331      -0.703879
                                                         2.113016      -0.642521
                                                         0.769911      -0.374851
                                                         0.348157      -0.139743
                                                         0.128212      -0.027849
                          1       3    3pz               5.605331      -0.703879
                                                         2.113016      -0.642521
                                                         0.769911      -0.374851
                                                         0.348157      -0.139743
                                                         0.128212      -0.027849

                          1       4    4px               5.605331      -0.480376
                                                         2.113016      -0.552894
                                                         0.769911      -0.316145
                                                         0.348157       0.210505
                                                         0.128212       0.076095
                          1       4    4py               5.605331      -0.480376
                                                         2.113016      -0.552894
                                                         0.769911      -0.316145
                                                         0.348157       0.210505
                                                         0.128212       0.076095
                          1       4    4pz               5.605331      -0.480376
                                                         2.113016      -0.552894
                                                         0.769911      -0.316145
                                                         0.348157       0.210505
                                                         0.128212       0.076095

                          1       5    4dx2              5.605331       0.640026
                                                         2.113016       0.274300
                                                         0.769911       0.446711
                                                         0.348157       0.028674
                                                         0.128212       0.029790
                          1       5    4dxy              5.605331       1.108557
                                                         2.113016       0.475102
                                                         0.769911       0.773726
                                                         0.348157       0.049666
                                                         0.128212       0.051599
                          1       5    4dxz              5.605331       1.108557
                                                         2.113016       0.475102
                                                         0.769911       0.773726
                                                         0.348157       0.049666
                                                         0.128212       0.051599
                          1       5    4dy2              5.605331       0.640026
                                                         2.113016       0.274300
                                                         0.769911       0.446711
                                                         0.348157       0.028674
                                                         0.128212       0.029790
                          1       5    4dyz              5.605331       1.108557
                                                         2.113016       0.475102
                                                         0.769911       0.773726
                                                         0.348157       0.049666
                                                         0.128212       0.051599
                          1       5    4dz2              5.605331       0.640026
                                                         2.113016       0.274300
                                                         0.769911       0.446711
                                                         0.348157       0.028674
                                                         0.128212       0.029790

       Atomic covalent radius [Angstrom]:                                  0.770

       Atomic van der Waals radius [Angstrom]:                             1.700

     GTH Potential information for                                   GTH-PADE-q4

       Description:                       Goedecker-Teter-Hutter pseudopotential
                                           Goedecker et al., PRB 54, 1703 (1996)
                                          Hartwigsen et al., PRB 58, 3641 (1998)
                                                      Krack, TCA 114, 145 (2005)

       Gaussian exponent of the core charge distribution:               4.109048
       Electronic configuration (s p d ...):                               2   2

       Parameters of the local part of the GTH pseudopotential:

                          rloc        C1          C2          C3          C4
                        0.348830   -8.513771    1.228432

       Parameters of the non-local part of the GTH pseudopotential:

                   l      r(l)      h(i,j,l)

                   0    0.304553    9.522842
                   1    0.232677

  4. Atomic kind: H                                     Number of atoms:       4

     Orbital Basis Set                                        DZVP-MOLOPT-SR-GTH

       Number of orbital shell sets:                                           1
       Number of orbital shells:                                               3
       Number of primitive Cartesian functions:                                5
       Number of Cartesian basis functions:                                    5
       Number of spherical basis functions:                                    5
       Norm type:                                                              2

       Normalised Cartesian orbitals:

                        Set   Shell   Orbital            Exponent    Coefficient

                          1       1    2s               10.068468      -0.133023
                                                         2.680223      -0.177618
                                                         0.791502      -0.258419
                                                         0.239116      -0.107525
                                                         0.082193      -0.014019

                          1       2    3s               10.068468       0.344673
                                                         2.680223       1.819821
                                                         0.791502      -0.999069
                                                         0.239116       0.017430
                                                         0.082193       0.082660

                          1       3    3px              10.068468       0.155326
                                                         2.680223       0.367157
                                                         0.791502       0.311480
                                                         0.239116       0.080105
                                                         0.082193       0.033440
                          1       3    3py              10.068468       0.155326
                                                         2.680223       0.367157
                                                         0.791502       0.311480
                                                         0.239116       0.080105
                                                         0.082193       0.033440
                          1       3    3pz              10.068468       0.155326
                                                         2.680223       0.367157
                                                         0.791502       0.311480
                                                         0.239116       0.080105
                                                         0.082193       0.033440

       Atomic covalent radius [Angstrom]:                                  0.320

       Atomic van der Waals radius [Angstrom]:                             1.090

     GTH Potential information for                                   GTH-PADE-q1

       Description:                       Goedecker-Teter-Hutter pseudopotential
                                           Goedecker et al., PRB 54, 1703 (1996)
                                          Hartwigsen et al., PRB 58, 3641 (1998)
                                                      Krack, TCA 114, 145 (2005)

       Gaussian exponent of the core charge distribution:              12.500000
       Electronic configuration (s p d ...):                                   1

       Parameters of the local part of the GTH pseudopotential:

                          rloc        C1          C2          C3          C4
                        0.200000   -4.180237    0.725075


 MOLECULE KIND INFORMATION


 All atoms are their own molecule, skipping detailed information


 TOTAL NUMBERS AND MAXIMUM NUMBERS

  Total number of            - Atomic kinds:                                   4
                             - Atoms:                                        174
                             - Shell sets:                                   174
                             - Shells:                                       538
                             - Primitive Cartesian functions:                868
                             - Cartesian basis functions:                   1752
                             - Spherical basis functions:                   1582

  Maximum angular momentum of- Orbital basis functions:                        2
                             - Local part of the GTH pseudopotential:          2
                             - Non-local part of the GTH pseudopotential:      4


 MODULE QUICKSTEP: ATOMIC COORDINATES IN ANGSTROM

   Atom Kind Element         X             Y             Z       Z(eff)     Mass
      1    1 Au   79      0.000000      0.000000      0.000000  11.0000 196.9666
      2    1 Au   79      8.342575      4.171288      0.000000  11.0000 196.9666
      3    1 Au   79      6.256932      6.256932      0.000000  11.0000 196.9666
      4    1 Au   79      4.171288      4.171288      0.000000  11.0000 196.9666
      5    1 Au   79      2.085644      6.256932      0.000000  11.0000 196.9666
      6    1 Au   79      2.085644     10.428219      0.000000  11.0000 196.9666
      7    1 Au   79      4.171288      8.342575      0.000000  11.0000 196.9666
      8    1 Au   79      0.000000      4.171288      0.000000  11.0000 196.9666
      9    1 Au   79      0.000000      8.342575      0.000000  11.0000 196.9666
     10    1 Au   79     10.428219      2.085644      0.000000  11.0000 196.9666
     11    1 Au   79      8.342575      0.000000      0.000000  11.0000 196.9666
     12    1 Au   79      6.256932      2.085644      0.000000  11.0000 196.9666
     13    1 Au   79      8.342575      8.342575      0.000000  11.0000 196.9666
     14    1 Au   79      4.171288      0.000000      0.000000  11.0000 196.9666
     15    1 Au   79      2.085644      2.085644      0.000000  11.0000 196.9666
     16    1 Au   79     10.428219     10.428219      0.000000  11.0000 196.9666
     17    1 Au   79      6.256932     10.428219      0.000000  11.0000 196.9666
     18    1 Au   79     10.428219      6.256932      0.000000  11.0000 196.9666
     19    1 Au   79      6.256932      8.342575      2.085644  11.0000 196.9666
     20    1 Au   79      8.342575     10.428219      2.085644  11.0000 196.9666
     21    1 Au   79      2.085644      8.342575      2.085644  11.0000 196.9666
     22    1 Au   79      0.000000     10.428219      2.085644  11.0000 196.9666
     23    1 Au   79     10.428219      8.342575      2.085644  11.0000 196.9666
     24    1 Au   79      4.171288     10.428219      2.085644  11.0000 196.9666
     25    1 Au   79      8.342575      6.256932      2.085644  11.0000 196.9666
     26    1 Au   79     10.428219      4.171288      2.085644  11.0000 196.9666
     27    1 Au   79      0.000000      2.085644      2.085644  11.0000 196.9666
     28    1 Au   79      4.171288      2.085644      2.085644  11.0000 196.9666
     29    1 Au   79      6.256932      0.000000      2.085644  11.0000 196.9666
     30    1 Au   79      8.342575      2.085644      2.085644  11.0000 196.9666
     31    1 Au   79      2.085644      0.000000      2.085644  11.0000 196.9666
     32    1 Au   79      0.000000      6.256932      2.085644  11.0000 196.9666
     33    1 Au   79      2.085644      4.171288      2.085644  11.0000 196.9666
     34    1 Au   79      4.171288      6.256932      2.085644  11.0000 196.9666
     35    1 Au   79      6.256932      4.171288      2.085644  11.0000 196.9666
     36    1 Au   79     10.428219      0.000000      2.085644  11.0000 196.9666
     37    1 Au   79      8.342575      4.171288      4.171288  11.0000 196.9666
     38    1 Au   79     10.428219      2.085644      4.171288  11.0000 196.9666
     39    1 Au   79      6.256932      6.256932      4.171288  11.0000 196.9666
     40    1 Au   79      2.085644     10.428219      4.171288  11.0000 196.9666
     41    1 Au   79      4.171288      4.171288      4.171288  11.0000 196.9666
     42    1 Au   79      2.085644      6.256932      4.171288  11.0000 196.9666
     43    1 Au   79      4.171288      8.342575      4.171288  11.0000 196.9666
     44    1 Au   79      0.000000      4.171288      4.171288  11.0000 196.9666
     45    1 Au   79      6.256932     10.428219      4.171288  11.0000 196.9666
     46    1 Au   79     10.428219      6.256932      4.171288  11.0000 196.9666
     47    1 Au   79      6.256932      2.085644      4.171288  11.0000 196.9666
     48    1 Au   79      8.342575      8.342575      4.171288  11.0000 196.9666
     49    1 Au   79      4.171288      0.000000      4.171288  11.0000 196.9666
     50    1 Au   79      2.085644      2.085644      4.171288  11.0000 196.9666
     51    1 Au   79     10.428219     10.428219      4.171288  11.0000 196.9666
     52    1 Au   79      0.000000      0.000000      4.171288  11.0000 196.9666
     53    1 Au   79      0.000000      8.342575      4.171288  11.0000 196.9666
     54    1 Au   79      8.342575      0.000000      4.171288  11.0000 196.9666
     55    1 Au   79      6.256932      8.342575      6.256932  11.0000 196.9666
     56    1 Au   79      4.171288     10.428219      6.256932  11.0000 196.9666
     57    1 Au   79     10.428219      8.342575      6.256932  11.0000 196.9666
     58    1 Au   79      2.085644      8.342575      6.256932  11.0000 196.9666
     59    1 Au   79      0.000000     10.428219      6.256932  11.0000 196.9666
     60    1 Au   79      8.342575     10.428219      6.256932  11.0000 196.9666
     61    1 Au   79      4.171288      6.256932      6.256932  11.0000 196.9666
     62    1 Au   79      8.342575      6.256932      6.256932  11.0000 196.9666
     63    1 Au   79     10.428219      4.171288      6.256932  11.0000 196.9666
     64    1 Au   79      2.085644      0.000000      6.256932  11.0000 196.9666
     65    1 Au   79      4.171288      2.085644      6.256932  11.0000 196.9666
     66    1 Au   79      6.256932      0.000000      6.256932  11.0000 196.9666
     67    1 Au   79      8.342575      2.085644      6.256932  11.0000 196.9666
     68    1 Au   79      0.000000      2.085644      6.256932  11.0000 196.9666
     69    1 Au   79      0.000000      6.256932      6.256932  11.0000 196.9666
     70    1 Au   79      2.085644      4.171288      6.256932  11.0000 196.9666
     71    1 Au   79      6.256932      4.171288      6.256932  11.0000 196.9666
     72    1 Au   79     10.428219      0.000000      6.256932  11.0000 196.9666
     73    1 Au   79      8.342575      8.342575      8.342575  11.0000 196.9666
     74    1 Au   79      6.256932     10.428219      8.342575  11.0000 196.9666
     75    1 Au   79      4.171288      8.342575      8.342575  11.0000 196.9666
     76    1 Au   79      2.085644     10.428219      8.342575  11.0000 196.9666
     77    1 Au   79      0.000000      8.342575      8.342575  11.0000 196.9666
     78    1 Au   79     10.428219      6.256932      8.342575  11.0000 196.9666
     79    1 Au   79      8.342575      4.171288      8.342575  11.0000 196.9666
     80    1 Au   79      6.256932      6.256932      8.342575  11.0000 196.9666
     81    1 Au   79      4.171288      4.171288      8.342575  11.0000 196.9666
     82    1 Au   79      2.085644      6.256932      8.342575  11.0000 196.9666
     83    1 Au   79     10.428219      2.085644      8.342575  11.0000 196.9666
     84    1 Au   79      0.000000      4.171288      8.342575  11.0000 196.9666
     85    1 Au   79      4.171288      0.000000      8.342575  11.0000 196.9666
     86    1 Au   79      0.000000      0.000000      8.342575  11.0000 196.9666
     87    1 Au   79      2.085644      2.085644      8.342575  11.0000 196.9666
     88    1 Au   79      6.256932      2.085644      8.342575  11.0000 196.9666
     89    1 Au   79     10.428219     10.428219      8.342575  11.0000 196.9666
     90    1 Au   79      8.342575      0.000000      8.342575  11.0000 196.9666
     91    2 S    16      4.171290      2.085640      9.628096   6.0000  32.0650
     92    2 S    16      4.171290      2.085640     15.974876   6.0000  32.0650
     93    3 C     6      4.157310      2.079570     14.213376   4.0000  12.0107
     94    3 C     6      2.958740      2.073610     13.512906   4.0000  12.0107
     95    3 C     6      5.366590      2.073610     13.512906   4.0000  12.0107
     96    3 C     6      4.174690      2.089490     11.389596   4.0000  12.0107
     97    3 C     6      5.373260      2.095460     12.090056   4.0000  12.0107
     98    3 C     6      2.965410      2.095460     12.090056   4.0000  12.0107
     99    4 H     1      2.062560      2.053310     14.024266   1.0000   1.0079
    100    4 H     1      6.259350      2.053250     14.030186   1.0000   1.0079
    101    4 H     1      6.269440      2.115750     11.578706   1.0000   1.0079
    102    4 H     1      2.072650      2.115820     11.572786   1.0000   1.0079
    103    1 Au   79      0.000000      0.000000     17.260397  11.0000 196.9666
    104    1 Au   79      8.342575      8.342575     17.260397  11.0000 196.9666
    105    1 Au   79      6.256932     10.428219     17.260397  11.0000 196.9666
    106    1 Au   79      4.171288      8.342575     17.260397  11.0000 196.9666
    107    1 Au   79      2.085644     10.428219     17.260397  11.0000 196.9666
    108    1 Au   79      0.000000      8.342575     17.260397  11.0000 196.9666
    109    1 Au   79     10.428219      6.256932     17.260397  11.0000 196.9666
    110    1 Au   79      8.342575      4.171288     17.260397  11.0000 196.9666
    111    1 Au   79      6.256932      6.256932     17.260397  11.0000 196.9666
    112    1 Au   79      4.171288      4.171288     17.260397  11.0000 196.9666
    113    1 Au   79      2.085644      6.256932     17.260397  11.0000 196.9666
    114    1 Au   79      0.000000      4.171288     17.260397  11.0000 196.9666
    115    1 Au   79     10.428219     10.428219     17.260397  11.0000 196.9666
    116    1 Au   79     10.428219      2.085644     17.260397  11.0000 196.9666
    117    1 Au   79      8.342575      0.000000     17.260397  11.0000 196.9666
    118    1 Au   79      6.256932      2.085644     17.260397  11.0000 196.9666
    119    1 Au   79      2.085644      2.085644     17.260397  11.0000 196.9666
    120    1 Au   79      4.171288      0.000000     17.260397  11.0000 196.9666
    121    1 Au   79      0.000000      6.256932     19.346041  11.0000 196.9666
    122    1 Au   79     10.428219      8.342575     19.346041  11.0000 196.9666
    123    1 Au   79      8.342575     10.428219     19.346041  11.0000 196.9666
    124    1 Au   79      0.000000      2.085644     19.346041  11.0000 196.9666
    125    1 Au   79      2.085644      0.000000     19.346041  11.0000 196.9666
    126    1 Au   79      6.256932      8.342575     19.346041  11.0000 196.9666
    127    1 Au   79      2.085644      8.342575     19.346041  11.0000 196.9666
    128    1 Au   79      4.171288     10.428219     19.346041  11.0000 196.9666
    129    1 Au   79      4.171288      2.085644     19.346041  11.0000 196.9666
    130    1 Au   79      6.256932      0.000000     19.346041  11.0000 196.9666
    131    1 Au   79     10.428219      4.171288     19.346041  11.0000 196.9666
    132    1 Au   79      8.342575      6.256932     19.346041  11.0000 196.9666
    133    1 Au   79      6.256932      4.171288     19.346041  11.0000 196.9666
    134    1 Au   79      4.171288      6.256932     19.346041  11.0000 196.9666
    135    1 Au   79      8.342575      2.085644     19.346041  11.0000 196.9666
    136    1 Au   79     10.428219      0.000000     19.346041  11.0000 196.9666
    137    1 Au   79      0.000000     10.428219     19.346041  11.0000 196.9666
    138    1 Au   79      2.085644      4.171288     19.346041  11.0000 196.9666
    139    1 Au   79      4.171288      4.171288     21.431684  11.0000 196.9666
    140    1 Au   79      6.256932      6.256932     21.431684  11.0000 196.9666
    141    1 Au   79      8.342575      4.171288     21.431684  11.0000 196.9666
    142    1 Au   79     10.428219      6.256932     21.431684  11.0000 196.9666
    143    1 Au   79      6.256932     10.428219     21.431684  11.0000 196.9666
    144    1 Au   79      2.085644     10.428219     21.431684  11.0000 196.9666
    145    1 Au   79      4.171288      8.342575     21.431684  11.0000 196.9666
    146    1 Au   79      8.342575      8.342575     21.431684  11.0000 196.9666
    147    1 Au   79      2.085644      6.256932     21.431684  11.0000 196.9666
    148    1 Au   79      0.000000      8.342575     21.431684  11.0000 196.9666
    149    1 Au   79      0.000000      4.171288     21.431684  11.0000 196.9666
    150    1 Au   79     10.428219     10.428219     21.431684  11.0000 196.9666
    151    1 Au   79      4.171288      0.000000     21.431684  11.0000 196.9666
    152    1 Au   79      0.000000      0.000000     21.431684  11.0000 196.9666
    153    1 Au   79      8.342575      0.000000     21.431684  11.0000 196.9666
    154    1 Au   79      6.256932      2.085644     21.431684  11.0000 196.9666
    155    1 Au   79     10.428219      2.085644     21.431684  11.0000 196.9666
    156    1 Au   79      2.085644      2.085644     21.431684  11.0000 196.9666
    157    1 Au   79      8.342575     10.428219     23.517328  11.0000 196.9666
    158    1 Au   79     10.428219      8.342575     23.517328  11.0000 196.9666
    159    1 Au   79      6.256932      8.342575     23.517328  11.0000 196.9666
    160    1 Au   79      4.171288     10.428219     23.517328  11.0000 196.9666
    161    1 Au   79      0.000000      2.085644     23.517328  11.0000 196.9666
    162    1 Au   79      2.085644      0.000000     23.517328  11.0000 196.9666
    163    1 Au   79      2.085644      8.342575     23.517328  11.0000 196.9666
    164    1 Au   79     10.428219      0.000000     23.517328  11.0000 196.9666
    165    1 Au   79     10.428219      4.171288     23.517328  11.0000 196.9666
    166    1 Au   79      8.342575      6.256932     23.517328  11.0000 196.9666
    167    1 Au   79      4.171288      2.085644     23.517328  11.0000 196.9666
    168    1 Au   79      6.256932      4.171288     23.517328  11.0000 196.9666
    169    1 Au   79      4.171288      6.256932     23.517328  11.0000 196.9666
    170    1 Au   79      8.342575      2.085644     23.517328  11.0000 196.9666
    171    1 Au   79      2.085644      4.171288     23.517328  11.0000 196.9666
    172    1 Au   79      0.000000      6.256932     23.517328  11.0000 196.9666
    173    1 Au   79      0.000000     10.428219     23.517328  11.0000 196.9666
    174    1 Au   79      6.256932      0.000000     23.517328  11.0000 196.9666



 SCF PARAMETERS         Density guess:                                   RESTART
                        --------------------------------------------------------
                        max_scf:                                             100
                        max_scf_history:                                       0
                        max_diis:                                              4
                        --------------------------------------------------------
                        eps_scf:                                        1.00E-07
                        eps_scf_history:                                0.00E+00
                        eps_diis:                                       1.00E-01
                        eps_eigval:                                     1.00E-05
                        --------------------------------------------------------
                        level_shift [a.u.]:                             0.000000
                        added MOs                                       100    0
                        --------------------------------------------------------
                        Mixing method:                            BROYDEN_MIXING
                                                charge density mixing in g-space
                        --------------------------------------------------------
                        Smear method:                                FERMI_DIRAC
                        Electronic temperature [K]:                        293.0
                        Electronic temperature [a.u.]:                  9.28E-04
                        Accuracy threshold:                             1.00E-10
                        --------------------------------------------------------
                        No outer SCF

 PW_GRID| Information for grid number                                          1
 PW_GRID| Grid distributed over                                   240 processors
 PW_GRID| Real space group dimensions                                    12   20
 PW_GRID| the grid is blocked:                                               YES
 PW_GRID| Cutoff [a.u.]                                                    200.0
 PW_GRID| spherical cutoff:                                                   NO
 PW_GRID|   Bounds   1            -77      76                Points:         154
 PW_GRID|   Bounds   2            -77      76                Points:         154
 PW_GRID|   Bounds   3           -157     157                Points:         315
 PW_GRID| Volume element (a.u.^3)  0.3622E-02     Volume (a.u.^3)     27056.3919
 PW_GRID| Grid span                                                    FULLSPACE
 PW_GRID|   Distribution                         Average         Max         Min
 PW_GRID|   G-Vectors                            31127.2       32032       27720
 PW_GRID|   G-Rays                                 202.1         208         180
 PW_GRID|   Real Space Points                    31127.2       32032       27720

 PW_GRID| Information for grid number                                          2
 PW_GRID| Number of the reference grid                                         1
 PW_GRID| Grid distributed over                                   240 processors
 PW_GRID| Real space group dimensions                                    12   20
 PW_GRID| the grid is blocked:                                                NO
 PW_GRID| Cutoff [a.u.]                                                     66.7
 PW_GRID| spherical cutoff:                                                   NO
 PW_GRID|   Bounds   1            -44      43                Points:          88
 PW_GRID|   Bounds   2            -44      43                Points:          88
 PW_GRID|   Bounds   3            -90      89                Points:         180
 PW_GRID| Volume element (a.u.^3)  0.1941E-01     Volume (a.u.^3)     27056.3919
 PW_GRID| Grid span                                                    FULLSPACE
 PW_GRID|   Distribution                         Average         Max         Min
 PW_GRID|   G-Vectors                             5808.0       18304           0
 PW_GRID|   G-Rays                                  66.0         208           0
 PW_GRID|   Real Space Points                     5808.0        7200        5040

 PW_GRID| Information for grid number                                          3
 PW_GRID| Number of the reference grid                                         1
 PW_GRID| Grid distributed over                                   240 processors
 PW_GRID| Real space group dimensions                                    12   20
 PW_GRID| the grid is blocked:                                                NO
 PW_GRID| Cutoff [a.u.]                                                     22.2
 PW_GRID| spherical cutoff:                                                   NO
 PW_GRID|   Bounds   1            -27      26                Points:          54
 PW_GRID|   Bounds   2            -27      26                Points:          54
 PW_GRID|   Bounds   3            -52      52                Points:         105
 PW_GRID| Volume element (a.u.^3)  0.8837E-01     Volume (a.u.^3)     27056.3919
 PW_GRID| Grid span                                                    FULLSPACE
 PW_GRID|   Distribution                         Average         Max         Min
 PW_GRID|   G-Vectors                             1275.8       11232           0
 PW_GRID|   G-Rays                                  23.6         208           0
 PW_GRID|   Real Space Points                     1275.8        1575         840

 PW_GRID| Information for grid number                                          4
 PW_GRID| Number of the reference grid                                         1
 PW_GRID| Grid distributed over                                   240 processors
 PW_GRID| Real space group dimensions                                    12   20
 PW_GRID| the grid is blocked:                                                NO
 PW_GRID| Cutoff [a.u.]                                                      7.4
 PW_GRID| spherical cutoff:                                                   NO
 PW_GRID|   Bounds   1            -15      14                Points:          30
 PW_GRID|   Bounds   2            -15      14                Points:          30
 PW_GRID|   Bounds   3            -30      29                Points:          60
 PW_GRID| Volume element (a.u.^3)  0.5010         Volume (a.u.^3)     27056.3919
 PW_GRID| Grid span                                                    FULLSPACE
 PW_GRID|   Distribution                         Average         Max         Min
 PW_GRID|   G-Vectors                              225.0        6240           0
 PW_GRID|   G-Rays                                   7.5         208           0
 PW_GRID|   Real Space Points                      225.0         360         120

 POISSON| Solver                                                        PERIODIC
 POISSON| Periodicity                                                        XYZ

 RS_GRID| Information for grid number                                          1
 RS_GRID|   Bounds   1            -77      76                Points:         154
 RS_GRID|   Bounds   2            -77      76                Points:         154
 RS_GRID|   Bounds   3           -157     157                Points:         315
 RS_GRID| Real space distribution over                                  4 groups
 RS_GRID| Real space distribution along direction                              1
 RS_GRID| Border size                                                         29
 RS_GRID| Real space distribution over                                  5 groups
 RS_GRID| Real space distribution along direction                              2
 RS_GRID| Border size                                                         29
 RS_GRID| Real space distribution over                                 12 groups
 RS_GRID| Real space distribution along direction                              3
 RS_GRID| Border size                                                         29
 RS_GRID|   Distribution                         Average         Max         Min
 RS_GRID|   Planes                                  96.5          97          96
 RS_GRID|   Distribution                         Average         Max         Min
 RS_GRID|   Planes                                  88.8          89          88
 RS_GRID|   Distribution                         Average         Max         Min
 RS_GRID|   Planes                                  84.2          85          84

 RS_GRID| Information for grid number                                          2
 RS_GRID|   Bounds   1            -44      43                Points:          88
 RS_GRID|   Bounds   2            -44      43                Points:          88
 RS_GRID|   Bounds   3            -90      89                Points:         180
 RS_GRID| Real space distribution over                                  4 groups
 RS_GRID| Real space distribution along direction                              1
 RS_GRID| Border size                                                         22
 RS_GRID| Real space distribution over                                  5 groups
 RS_GRID| Real space distribution along direction                              2
 RS_GRID| Border size                                                         22
 RS_GRID| Real space distribution over                                 12 groups
 RS_GRID| Real space distribution along direction                              3
 RS_GRID| Border size                                                         22
 RS_GRID|   Distribution                         Average         Max         Min
 RS_GRID|   Planes                                  66.0          66          66
 RS_GRID|   Distribution                         Average         Max         Min
 RS_GRID|   Planes                                  61.6          62          61
 RS_GRID|   Distribution                         Average         Max         Min
 RS_GRID|   Planes                                  59.0          59          59

 RS_GRID| Information for grid number                                          3
 RS_GRID|   Bounds   1            -27      26                Points:          54
 RS_GRID|   Bounds   2            -27      26                Points:          54
 RS_GRID|   Bounds   3            -52      52                Points:         105
 RS_GRID| Real space fully replicated
 RS_GRID| Group size                                                           1

 RS_GRID| Information for grid number                                          4
 RS_GRID|   Bounds   1            -15      14                Points:          30
 RS_GRID|   Bounds   2            -15      14                Points:          30
 RS_GRID|   Bounds   3            -30      29                Points:          60
 RS_GRID| Real space fully replicated
 RS_GRID| Group size                                                           1

 KPOINTS| Number of kpoint groups                                              1
 KPOINTS| Size of each kpoint group                                          240
 KPOINTS| Number of kpoints per group                                          1

 Number of electrons:                                                       1822
 Number of occupied orbitals:                                                911
 Number of molecular orbitals:                                              1011

 Number of orbital functions:                                               1582
 Number of independent orbital functions:                                   1582

 Extrapolation method: initial_guess


 SCF WAVEFUNCTION OPTIMIZATION

  Step     Update method      Time    Convergence         Total energy    Change
  ------------------------------------------------------------------------------
 Using HartreeLeadsBottom   0.0000000000000000     
 v_hartree_z_average(0)   0.0000000000000000     
     1 NoMix/SMGL  0.30E+00  110.0     2.61766716     -5448.1311156228 -5.45E+03
 Using HartreeLeadsBottom   0.0000000000000000     
 v_hartree_z_average(0)   0.0000000000000000     
     2 Broy./SMGL  0.30E+00   23.3     0.63883266     -5460.2785429432 -1.21E+01
 Using HartreeLeadsBottom   0.0000000000000000     
 v_hartree_z_average(0)   0.0000000000000000     
     3 Broy./SMGL  0.30E+00   22.9     0.82331680     -5457.2929600549  2.99E+00
 Using HartreeLeadsBottom   0.0000000000000000     
 v_hartree_z_average(0)   0.0000000000000000     
     4 Broy./SMGL  0.30E+00   22.8     0.42119041     -5448.0327736032  9.26E+00
 Using HartreeLeadsBottom   0.0000000000000000     
 v_hartree_z_average(0)   0.0000000000000000     
     5 Broy./SMGL  0.30E+00   22.9     7.07671681     -5447.5649581371  4.68E-01
 Using HartreeLeadsBottom   0.0000000000000000     
 v_hartree_z_average(0)   0.0000000000000000     
     6 Broy./SMGL  0.30E+00   22.8     4.91296770     -5438.5282891325  9.04E+00
 Using HartreeLeadsBottom   0.0000000000000000     
 v_hartree_z_average(0)   0.0000000000000000     
     7 Broy./SMGL  0.30E+00   22.8     2.02149981     -5443.2002372929 -4.67E+00
 Using HartreeLeadsBottom   0.0000000000000000     
 v_hartree_z_average(0)   0.0000000000000000     
     8 Broy./SMGL  0.30E+00   22.8     1.41908636     -5439.8473527283  3.35E+00
 Using HartreeLeadsBottom   0.0000000000000000     
 v_hartree_z_average(0)   0.0000000000000000     
     9 Broy./SMGL  0.30E+00   22.8     0.74331896     -5429.5846990652  1.03E+01
 Using HartreeLeadsBottom   0.0000000000000000     
 v_hartree_z_average(0)   0.0000000000000000     
    10 Broy./SMGL  0.30E+00   22.8     0.46884100     -5424.1427105436  5.44E+00
 Using HartreeLeadsBottom   0.0000000000000000     
 v_hartree_z_average(0)   0.0000000000000000     
    11 Broy./SMGL  0.30E+00   22.7     0.70431959     -5423.4671134984  6.76E-01
 Using HartreeLeadsBottom   0.0000000000000000     
 v_hartree_z_average(0)   0.0000000000000000     
    12 Broy./SMGL  0.30E+00   22.8     0.03921605     -5419.2827652281  4.18E+00
 Using HartreeLeadsBottom   0.0000000000000000     
 v_hartree_z_average(0)   0.0000000000000000     
    13 Broy./SMGL  0.30E+00   22.7     1.44755876     -5412.5117936298  6.77E+00
 Using HartreeLeadsBottom   0.0000000000000000     
 v_hartree_z_average(0)   0.0000000000000000     
    14 Broy./SMGL  0.30E+00   23.2     0.43947687     -5410.0898027518  2.42E+00
 Using HartreeLeadsBottom   0.0000000000000000     
 v_hartree_z_average(0)   0.0000000000000000     
    15 Broy./SMGL  0.30E+00   22.6     1.14332561     -5415.2694656533 -5.18E+00
 Using HartreeLeadsBottom   0.0000000000000000     
 v_hartree_z_average(0)   0.0000000000000000     
    16 Broy./SMGL  0.30E+00   22.7     9.49858482     -5421.5121197179 -6.24E+00
 Using HartreeLeadsBottom   0.0000000000000000     
 v_hartree_z_average(0)   0.0000000000000000     
    17 Broy./SMGL  0.30E+00   22.7     9.07517813     -5403.6528436497  1.79E+01
 Using HartreeLeadsBottom   0.0000000000000000     
 v_hartree_z_average(0)   0.0000000000000000     
    18 Broy./SMGL  0.30E+00   22.6     1.30539143     -5409.9832964128 -6.33E+00
 Using HartreeLeadsBottom   0.0000000000000000     
 v_hartree_z_average(0)   0.0000000000000000     
    19 Broy./SMGL  0.30E+00   22.7     1.05134140     -5400.2348308552  9.75E+00
 Using HartreeLeadsBottom   0.0000000000000000     
 v_hartree_z_average(0)   0.0000000000000000     
    20 Broy./SMGL  0.30E+00   22.7     0.63159338     -5399.8954709355  3.39E-01
 Using HartreeLeadsBottom   0.0000000000000000     
 v_hartree_z_average(0)   0.0000000000000000     
    21 Broy./SMGL  0.30E+00   22.7     0.59407217     -5401.4931626866 -1.60E+00
 Using HartreeLeadsBottom   0.0000000000000000     
 v_hartree_z_average(0)   0.0000000000000000     
    22 Broy./SMGL  0.30E+00   22.6     0.56234708     -5407.5741159878 -6.08E+00
 Using HartreeLeadsBottom   0.0000000000000000     
 v_hartree_z_average(0)   0.0000000000000000     
    23 Broy./SMGL  0.30E+00   22.5     0.19874000     -5410.3165834034 -2.74E+00
 Using HartreeLeadsBottom   0.0000000000000000     
 v_hartree_z_average(0)   0.0000000000000000     
    24 Broy./SMGL  0.30E+00   22.6     0.91400582     -5411.6341341204 -1.32E+00
 Using HartreeLeadsBottom   0.0000000000000000     
 v_hartree_z_average(0)   0.0000000000000000     
    25 Broy./SMGL  0.30E+00   22.5     0.14790267     -5416.7937259174 -5.16E+00
 Using HartreeLeadsBottom   0.0000000000000000     
 v_hartree_z_average(0)   0.0000000000000000     
    26 Broy./SMGL  0.30E+00   22.7    12.56964551     -5417.5637904517 -7.70E-01
 Using HartreeLeadsBottom   0.0000000000000000     
 v_hartree_z_average(0)   0.0000000000000000     
    27 Broy./SMGL  0.30E+00   22.4    13.98864910     -5417.9095209385 -3.46E-01
 Using HartreeLeadsBottom   0.0000000000000000     
 v_hartree_z_average(0)   0.0000000000000000     
    28 Broy./SMGL  0.30E+00   22.6    13.71436340     -5410.3676041162  7.54E+00
 Using HartreeLeadsBottom   0.0000000000000000     
 v_hartree_z_average(0)   0.0000000000000000     
    29 Broy./SMGL  0.30E+00   22.5     0.92755743     -5420.7993235649 -1.04E+01
 Using HartreeLeadsBottom   0.0000000000000000     
 v_hartree_z_average(0)   0.0000000000000000     
    30 Broy./SMGL  0.30E+00   23.6     0.74253145     -5411.2696299466  9.53E+00
 Using HartreeLeadsBottom   0.0000000000000000     
 v_hartree_z_average(0)   0.0000000000000000     
    31 Broy./SMGL  0.30E+00   31.8     0.69304336     -5406.2178843806  5.05E+00
 Using HartreeLeadsBottom   0.0000000000000000     
 v_hartree_z_average(0)   0.0000000000000000     
    32 Broy./SMGL  0.30E+00   31.2     0.18137065     -5402.6303954527  3.59E+00
 Using HartreeLeadsBottom   0.0000000000000000     
 v_hartree_z_average(0)   0.0000000000000000     
    33 Broy./SMGL  0.30E+00   22.7     0.19248063     -5404.3237842923 -1.69E+00
 Using HartreeLeadsBottom   0.0000000000000000     
 v_hartree_z_average(0)   0.0000000000000000     
    34 Broy./SMGL  0.30E+00   22.6     0.28733601     -5403.1179326704  1.21E+00
 Using HartreeLeadsBottom   0.0000000000000000     
 v_hartree_z_average(0)   0.0000000000000000     
    35 Broy./SMGL  0.30E+00   22.5     0.01083213     -5402.0323667242  1.09E+00
 Using HartreeLeadsBottom   0.0000000000000000     
 v_hartree_z_average(0)   0.0000000000000000     
    36 Broy./SMGL  0.30E+00   22.6     0.17635130     -5402.6340287260 -6.02E-01
 Using HartreeLeadsBottom   0.0000000000000000     
 v_hartree_z_average(0)   0.0000000000000000     
    37 Broy./SMGL  0.30E+00   22.8    11.43318537     -5404.2085833556 -1.57E+00
 Using HartreeLeadsBottom   0.0000000000000000     
 v_hartree_z_average(0)   0.0000000000000000     
    38 Broy./SMGL  0.30E+00   22.7    11.22180614     -5398.8452122262  5.36E+00
 Using HartreeLeadsBottom   0.0000000000000000     
 v_hartree_z_average(0)   0.0000000000000000     
    39 Broy./SMGL  0.30E+00   22.6     1.34098976     -5396.8435323908  2.00E+00
 Using HartreeLeadsBottom   0.0000000000000000     
 v_hartree_z_average(0)   0.0000000000000000     
    40 Broy./SMGL  0.30E+00   22.7     1.03344363     -5385.2977472837  1.15E+01
 Using HartreeLeadsBottom   0.0000000000000000     
 v_hartree_z_average(0)   0.0000000000000000     
    41 Broy./SMGL  0.30E+00   22.6     1.18834804     -5387.9351025759 -2.64E+00
 Using HartreeLeadsBottom   0.0000000000000000     
 v_hartree_z_average(0)   0.0000000000000000     
    42 Broy./SMGL  0.30E+00   22.7     0.18598551     -5391.1227375583 -3.19E+00
 Using HartreeLeadsBottom   0.0000000000000000     
 v_hartree_z_average(0)   0.0000000000000000     
    43 Broy./SMGL  0.30E+00   22.6     1.13987710     -5383.3619250138  7.76E+00
 Using HartreeLeadsBottom   0.0000000000000000     
 v_hartree_z_average(0)   0.0000000000000000     
    44 Broy./SMGL  0.30E+00   22.5     1.23054840     -5383.5373796823 -1.75E-01
 Using HartreeLeadsBottom   0.0000000000000000     
 v_hartree_z_average(0)   0.0000000000000000     
    45 Broy./SMGL  0.30E+00   22.5     0.70419652     -5379.5343812992  4.00E+00
 Using HartreeLeadsBottom   0.0000000000000000     
 v_hartree_z_average(0)   0.0000000000000000     
    46 Broy./SMGL  0.30E+00   22.5     2.68122983     -5391.1693395222 -1.16E+01
 Using HartreeLeadsBottom   0.0000000000000000     
 v_hartree_z_average(0)   0.0000000000000000     
    47 Broy./SMGL  0.30E+00   22.5     1.43475361     -5414.0914932946 -2.29E+01
 Using HartreeLeadsBottom   0.0000000000000000     
 v_hartree_z_average(0)   0.0000000000000000     
    48 Broy./SMGL  0.30E+00   22.6     0.12511825     -5415.0110643241 -9.20E-01
 Using HartreeLeadsBottom   0.0000000000000000     
 v_hartree_z_average(0)   0.0000000000000000     
    49 Broy./SMGL  0.30E+00   22.4     0.32386196     -5414.2347187166  7.76E-01
 Using HartreeLeadsBottom   0.0000000000000000     
 v_hartree_z_average(0)   0.0000000000000000     
    50 Broy./SMGL  0.30E+00   22.7     0.33929261     -5416.2731670482 -2.04E+00
 Using HartreeLeadsBottom   0.0000000000000000     
 v_hartree_z_average(0)   0.0000000000000000     
    51 Broy./SMGL  0.30E+00   22.4     0.34632119     -5411.6365698485  4.64E+00
 Using HartreeLeadsBottom   0.0000000000000000     
 v_hartree_z_average(0)   0.0000000000000000     
    52 Broy./SMGL  0.30E+00   22.6     0.17512054     -5412.8377652794 -1.20E+00
 Using HartreeLeadsBottom   0.0000000000000000     
 v_hartree_z_average(0)   0.0000000000000000     
    53 Broy./SMGL  0.30E+00   22.5     0.35618749     -5411.5124980181  1.33E+00
 Using HartreeLeadsBottom   0.0000000000000000     
 v_hartree_z_average(0)   0.0000000000000000     
    54 Broy./SMGL  0.30E+00   22.5     0.33190199     -5411.0299645870  4.83E-01
 Using HartreeLeadsBottom   0.0000000000000000     
 v_hartree_z_average(0)   0.0000000000000000     
    55 Broy./SMGL  0.30E+00   22.6     0.06250550     -5409.6243276058  1.41E+00
 Using HartreeLeadsBottom   0.0000000000000000     
 v_hartree_z_average(0)   0.0000000000000000     
    56 Broy./SMGL  0.30E+00   22.6     0.39581579     -5411.2099929954 -1.59E+00
 Using HartreeLeadsBottom   0.0000000000000000     
 v_hartree_z_average(0)   0.0000000000000000     
    57 Broy./SMGL  0.30E+00   22.6     0.42415177     -5410.2602949746  9.50E-01
 Using HartreeLeadsBottom   0.0000000000000000     
 v_hartree_z_average(0)   0.0000000000000000     
    58 Broy./SMGL  0.30E+00   22.6     0.33461193     -5414.4247794952 -4.16E+00
 Using HartreeLeadsBottom   0.0000000000000000     
 v_hartree_z_average(0)   0.0000000000000000     
    59 Broy./SMGL  0.30E+00   22.5     0.17919172     -5412.6319098913  1.79E+00
 Using HartreeLeadsBottom   0.0000000000000000     
 v_hartree_z_average(0)   0.0000000000000000     
    60 Broy./SMGL  0.30E+00   22.6     0.05724685     -5414.6708037956 -2.04E+00
 Using HartreeLeadsBottom   0.0000000000000000     
 v_hartree_z_average(0)   0.0000000000000000     
    61 Broy./SMGL  0.30E+00   22.6    13.47513762     -5414.8821372353 -2.11E-01
 Using HartreeLeadsBottom   0.0000000000000000     
 v_hartree_z_average(0)   0.0000000000000000     
    62 Broy./SMGL  0.30E+00   22.5     0.06568368     -5406.6492760988  8.23E+00
 Using HartreeLeadsBottom   0.0000000000000000     
 v_hartree_z_average(0)   0.0000000000000000     
    63 Broy./SMGL  0.30E+00   22.5     0.05467223     -5406.9063455060 -2.57E-01
 Using HartreeLeadsBottom   0.0000000000000000     
 v_hartree_z_average(0)   0.0000000000000000     
    64 Broy./SMGL  0.30E+00   22.4     0.04070228     -5406.8762038992  3.01E-02
 Using HartreeLeadsBottom   0.0000000000000000     
 v_hartree_z_average(0)   0.0000000000000000     
    65 Broy./SMGL  0.30E+00   22.5     0.01567464     -5406.7645351878  1.12E-01
 Using HartreeLeadsBottom   0.0000000000000000     
 v_hartree_z_average(0)   0.0000000000000000     
    66 Broy./SMGL  0.30E+00   22.6    13.45461067     -5406.6297042170  1.35E-01
 Using HartreeLeadsBottom   0.0000000000000000     
 v_hartree_z_average(0)   0.0000000000000000     
    67 Broy./SMGL  0.30E+00   22.5    13.46168661     -5415.0499949802 -8.42E+00
 Using HartreeLeadsBottom   0.0000000000000000     
 v_hartree_z_average(0)   0.0000000000000000     
    68 Broy./SMGL  0.30E+00   22.8     0.04784359     -5406.9816829097  8.07E+00
 Using HartreeLeadsBottom   0.0000000000000000     
 v_hartree_z_average(0)   0.0000000000000000     
    69 Broy./SMGL  0.30E+00   22.5     0.02625380     -5406.4485341424  5.33E-01
 Using HartreeLeadsBottom   0.0000000000000000     
 v_hartree_z_average(0)   0.0000000000000000     
    70 Broy./SMGL  0.30E+00   22.6    13.52818450     -5406.5433496256 -9.48E-02
 Using HartreeLeadsBottom   0.0000000000000000     
 v_hartree_z_average(0)   0.0000000000000000     
    71 Broy./SMGL  0.30E+00   22.5    13.50610865     -5414.9002806421 -8.36E+00
 Using HartreeLeadsBottom   0.0000000000000000     
 v_hartree_z_average(0)   0.0000000000000000     
    72 Broy./SMGL  0.30E+00   22.5    13.46184734     -5406.5351262556  8.37E+00
 Using HartreeLeadsBottom   0.0000000000000000     
[...]
     78       Au     1      11.000         11.026                        -0.026
     79       Au     1      11.000         11.131                        -0.131
     80       Au     1      11.000         11.098                        -0.098
     81       Au     1      11.000         11.153                        -0.153
     82       Au     1      11.000         11.170                        -0.170
     83       Au     1      11.000         11.180                        -0.180
     84       Au     1      11.000         10.987                         0.013
     85       Au     1      11.000         11.209                        -0.209
     86       Au     1      11.000         11.091                        -0.091
     87       Au     1      11.000         11.183                        -0.183
     88       Au     1      11.000         11.058                        -0.058
     89       Au     1      11.000         11.035                        -0.035
     90       Au     1      11.000         11.130                        -0.130
     91       S      2       6.000          6.010                        -0.010
     92       S      2       6.000          4.315                         1.685
     93       C      3       4.000          3.442                         0.558
     94       C      3       4.000          3.538                         0.462
     95       C      3       4.000          3.553                         0.447
     96       C      3       4.000          3.739                         0.261
     97       C      3       4.000          3.568                         0.432
     98       C      3       4.000          3.559                         0.441
     99       H      4       1.000          0.943                         0.057
    100       H      4       1.000          0.954                         0.046
    101       H      4       1.000          0.795                         0.205
    102       H      4       1.000          0.798                         0.202
    103       Au     1      11.000         10.897                         0.103
    104       Au     1      11.000         10.884                         0.116
    105       Au     1      11.000         10.884                         0.116
    106       Au     1      11.000         10.884                         0.116
    107       Au     1      11.000         10.884                         0.116
    108       Au     1      11.000         10.884                         0.116
    109       Au     1      11.000         10.884                         0.116
    110       Au     1      11.000         10.896                         0.104
    111       Au     1      11.000         10.883                         0.117
    112       Au     1      11.000         10.847                         0.153
    113       Au     1      11.000         10.883                         0.117
    114       Au     1      11.000         10.896                         0.104
    115       Au     1      11.000         10.884                         0.116
    116       Au     1      11.000         10.888                         0.112
    117       Au     1      11.000         10.897                         0.103
    118       Au     1      11.000         10.939                         0.061
    119       Au     1      11.000         10.940                         0.060
    120       Au     1      11.000         10.849                         0.151
    121       Au     1      11.000         11.012                        -0.012
    122       Au     1      11.000         11.012                        -0.012
    123       Au     1      11.000         11.012                        -0.012
    124       Au     1      11.000         11.012                        -0.012
    125       Au     1      11.000         11.011                        -0.011
    126       Au     1      11.000         11.012                        -0.012
    127       Au     1      11.000         11.012                        -0.012
    128       Au     1      11.000         11.012                        -0.012
    129       Au     1      11.000         11.016                        -0.016
    130       Au     1      11.000         11.011                        -0.011
    131       Au     1      11.000         11.012                        -0.012
    132       Au     1      11.000         11.012                        -0.012
    133       Au     1      11.000         11.011                        -0.011
    134       Au     1      11.000         11.012                        -0.012
    135       Au     1      11.000         11.012                        -0.012
    136       Au     1      11.000         11.012                        -0.012
    137       Au     1      11.000         11.012                        -0.012
    138       Au     1      11.000         11.011                        -0.011
    139       Au     1      11.000         11.001                        -0.001
    140       Au     1      11.000         11.001                        -0.001
    141       Au     1      11.000         11.001                        -0.001
    142       Au     1      11.000         11.001                        -0.001
    143       Au     1      11.000         11.001                        -0.001
    144       Au     1      11.000         11.001                        -0.001
    145       Au     1      11.000         10.999                         0.001
    146       Au     1      11.000         11.001                        -0.001
    147       Au     1      11.000         11.001                        -0.001
    148       Au     1      11.000         11.001                        -0.001
    149       Au     1      11.000         11.000                        -0.000
    150       Au     1      11.000         11.001                        -0.001
    151       Au     1      11.000         11.001                        -0.001
    152       Au     1      11.000         11.001                        -0.001
    153       Au     1      11.000         11.000                        -0.000
    154       Au     1      11.000         11.001                        -0.001
    155       Au     1      11.000         10.999                         0.001
    156       Au     1      11.000         11.001                        -0.001
    157       Au     1      11.000         10.986                         0.014
    158       Au     1      11.000         10.997                         0.003
    159       Au     1      11.000         10.979                         0.021
    160       Au     1      11.000         10.983                         0.017
    161       Au     1      11.000         10.974                         0.026
    162       Au     1      11.000         10.988                         0.012
    163       Au     1      11.000         10.981                         0.019
    164       Au     1      11.000         10.981                         0.019
    165       Au     1      11.000         10.978                         0.022
    166       Au     1      11.000         10.997                         0.003
    167       Au     1      11.000         11.000                         0.000
    168       Au     1      11.000         10.995                         0.005
    169       Au     1      11.000         10.993                         0.007
    170       Au     1      11.000         10.978                         0.022
    171       Au     1      11.000         10.998                         0.002
    172       Au     1      11.000         10.992                         0.008
    173       Au     1      11.000         10.991                         0.009
    174       Au     1      11.000         10.991                         0.009

  Total Charge                                                           38.974
 !-----------------------------------------------------------------------------!
 Calculating transmission coefficient

 ENERGY| Total FORCE_EVAL ( QS ) energy [a.u.]:            -5414.973566207518161

 -------------------------------------------------------------------------------
 -                                                                             -
 -                                DBCSR STATISTICS                             -
 -                                                                             -
 -------------------------------------------------------------------------------
 COUNTER                                    TOTAL       BLAS       SMM       ACC
 flops inhomo. stacks                           0       0.0%      0.0%      0.0%
 flops total                         0.000000E+00       0.0%      0.0%      0.0%
 flops max/rank                      0.000000E+00       0.0%      0.0%      0.0%
 matmuls inhomo. stacks                         0       0.0%      0.0%      0.0%
 matmuls total                                  0       0.0%      0.0%      0.0%
 number of processed stacks                     0       0.0%      0.0%      0.0%
 average stack size                                     0.0       0.0       0.0
 marketing flops                     0.000000E+00
 -------------------------------------------------------------------------------
 -                                                                             -
 -                      DBCSR MESSAGE PASSING PERFORMANCE                      -
 -                                                                             -
 -------------------------------------------------------------------------------
 ROUTINE             CALLS      AVE VOLUME [Bytes]
 MP_Bcast                1                     12.
 MP_Allreduce         5419                      8.
 MP_Alltoall          5209                 195831.
 -------------------------------------------------------------------------------

 -------------------------------------------------------------------------------
 -                                                                             -
 -                                DBM STATISTICS                               -
 -                                                                             -
 -------------------------------------------------------------------------------
    M  x    N  x    K                                          COUNT     PERCENT
 -------------------------------------------------------------------------------

 -------------------------------------------------------------------------------
 -                                                                             -
 -                                GRID STATISTICS                              -
 -                                                                             -
 -------------------------------------------------------------------------------
 LP    KERNEL             BACKEND                              COUNT     PERCENT
 4     collocate ortho    REF                               13924163      47.59%
 4     integrate ortho    REF                               13786300      47.11%
 3     collocate ortho    REF                                 401778       1.37%
 3     integrate ortho    REF                                 397800       1.36%
 0     collocate general  REF                                 375840       1.28%
 0     integrate general  REF                                 334080       1.14%
 2     collocate ortho    REF                                  20806       0.07%
 2     integrate ortho    REF                                  20600       0.07%
 -------------------------------------------------------------------------------

 MEMORY| Estimated peak process memory [MiB]                                1201

 -------------------------------------------------------------------------------
 ----                             MULTIGRID INFO                            ----
 -------------------------------------------------------------------------------
 count for grid        1:        1700637          cutoff [a.u.]          200.00
 count for grid        2:        2268995          cutoff [a.u.]           66.67
 count for grid        3:        1214026          cutoff [a.u.]           22.22
 count for grid        4:         430389          cutoff [a.u.]            7.41
 total gridlevel count  :        5614047

 -------------------------------------------------------------------------------
 -                                                                             -
 -                         MESSAGE PASSING PERFORMANCE                         -
 -                                                                             -
 -------------------------------------------------------------------------------

 ROUTINE             CALLS      AVE VOLUME [Bytes]
 MP_Group                5
 MP_Bcast            98534                  13500.
 MP_Allreduce         5523                2143704.
 MP_Sync              1210
 MP_Alltoall          1825
 MP_ISendRecv        96078                   7740.
 MP_Wait            108012
 MP_ISend            22917                  71154.
 MP_IRecv            23031                  70816.
 MP_Recv              6615                 404992.
 MP_Write_All            2                 431392.
 -------------------------------------------------------------------------------


 -------------------------------------------------------------------------------
 -                                                                             -
 -                           R E F E R E N C E S                               -
 -                                                                             -
 -------------------------------------------------------------------------------
 
 CP2K version 2022.1 (Development Version), the CP2K developers group (2022).
 CP2K is freely available from https://www.cp2k.org/ .

 Kuehne,Thomas D.; Iannuzzi,Marcella; Del Ben,Mauro;
 Rybkin,Vladimir V.; Seewald,Patrick; Stein,Frederick; Laino,Teodoro;
 Khaliullin,Rustam Z.; Schuett,Ole; Schiffmann,Florian; Golze,Dorothea;
 Wilhelm,Jan; Chulkov,Sergey; Bani-Hashemian,Mohammad Hossein;
 Weber,Valery; Borstnik,Urban; Taillefumier,Mathieu;
 Jakobovits,Alice Shoshana; Lazzaro,Alfio; Pabst,Hans; Mueller,Tiziano;
 Schade,Robert; Guidon,Manuel; Andermatt,Samuel; Holmberg,Nico;
 Schenter,Gregory K.; Hehn,Anna; Bussy,Augustin; Belleflamme,Fabian;
 Tabacchi,Gloria; Gloess,Andreas; Lass,Michael; Bethune,Iain;
 Mundy,Christopher J.; Plessl,Christian; Watkins,Matt;
 VandeVondele,Joost; Krack,Matthias; Hutter,Juerg. 
 The Journal of Chemical Physics, 152 (19), (2020). 
 CP2K: An electronic structure and molecular dynamics software package -
 Quickstep: Efficient and accurate electronic structure calculations.
 https://doi.org/10.1063/5.0007045

 Togo, Atsushi; Tanaka, Isao. arXiv, 1808.01590 (2018). 
 Spglib : a software library for crystal symmetry search.
 https://doi.org/xxx

 Schuett, Ole; Messmer, Peter; Hutter, Juerg; VandeVondele, Joost. 
 Electronic Structure Calculations on Graphics Processing Units, John
 Wiley & Sons, Ltd, 173-190 (2016). 
 GPU-Accelerated Sparse Matrix-Matrix Multiplication for
 Linear Scaling Density Functional Theory.
 https://doi.org/10.1002/9781118670712.ch8

 Heinecke, A; Henry, G; Hutchinson, M; Pabst, H. 
 Proceedings of Intl. Supercomputing Conference, 981-991 (2016). 
 LIBXSMM: Accelerating Small Matrix Multiplications
 by Runtime Code Generation.
 https://doi.org/10.1109/SC.2016.83

 Borstnik, U; VandeVondele, J; Weber, V; Hutter, J. 
 PARALLEL COMPUTING, 40 (5-6), 47-58 (2014). 
 Sparse matrix multiplication: The distributed block-compressed sparse
 row library.
 https://doi.org/10.1016/j.parco.2014.03.012

 Hutter, J; Iannuzzi, M; Schiffmann, F; VandeVondele, J. 
 WIREs Comput Mol Sci., 4 (1), 15-25 (2014). 
 CP2K: atomistic simulations of condensed matter systems.
 https://doi.org/10.1002/wcms.1159

 VandeVondele, J; Hutter, J. 
 JOURNAL OF CHEMICAL PHYSICS, 127 (11), 114105 (2007). 
 Gaussian basis sets for accurate calculations on molecular systems in
 gas and condensed phases.
 https://doi.org/10.1063/1.2770708

 Krack, M. 
 THEORETICAL CHEMISTRY ACCOUNTS, 114 (1-3), 145-152 (2005). 
 Pseudopotentials for H to Kr optimized for gradient-corrected
 exchange-correlation functionals.
 https://doi.org/10.1007/s00214-005-0655-y

 VandeVondele, J; Krack, M; Mohamed, F; Parrinello, M; Chassaing, T;
 Hutter, J. COMPUTER PHYSICS COMMUNICATIONS, 167 (2), 103-128 (2005). 
 QUICKSTEP: Fast and accurate density functional calculations using a
 mixed Gaussian and plane waves approach.
 https://doi.org/10.1016/j.cpc.2004.12.014

 Frigo, M; Johnson, SG. 
 PROCEEDINGS OF THE IEEE, 93 (2), 216-231 (2005). 
 The design and implementation of FFTW3.
 https://doi.org/10.1109/JPROC.2004.840301

 Hartwigsen, C; Goedecker, S; Hutter, J. 
 PHYSICAL REVIEW B, 58 (7), 3641-3662 (1998). 
 Relativistic separable dual-space Gaussian pseudopotentials from H to Rn.
 https://doi.org/10.1103/PhysRevB.58.3641

 Lippert, G; Hutter, J; Parrinello, M. 
 MOLECULAR PHYSICS, 92 (3), 477-487 (1997). 
 A hybrid Gaussian and plane wave density functional scheme.
 https://doi.org/10.1080/002689797170220

 Goedecker, S; Teter, M; Hutter, J. 
 PHYSICAL REVIEW B, 54 (3), 1703-1710 (1996). 
 Separable dual-space Gaussian pseudopotentials.
 https://doi.org/10.1103/PhysRevB.54.1703


 -------------------------------------------------------------------------------
 -                                                                             -
 -                                T I M I N G                                  -
 -                                                                             -
 -------------------------------------------------------------------------------
 SUBROUTINE                       CALLS  ASD         SELF TIME        TOTAL TIME
                                MAXIMUM       AVERAGE  MAXIMUM  AVERAGE  MAXIMUM
 CP2K                                 1  1.0    0.031    0.048 2668.124 2668.133
 qs_energies                          1  2.0    0.000    0.001 2667.809 2667.898
 run_smeagol_emtrans                101  6.0 2112.148 2319.557 2621.677 2635.525
 scf_env_do_scf                       1  3.0    0.000    0.003 2372.370 2372.438
 scf_env_do_scf_inner_loop          100  4.0    0.023    4.531 2372.369 2372.435
 qs_scf_new_mos_kp                  100  5.0    0.001    0.002 2329.417 2343.185
 mp_sum_iv                          822  7.4  223.667  234.547  223.667  234.547
 dbcsr_replicate                  10881  8.0    1.797    2.484  205.079  208.234
 convert_dbcsr_to_replsiesta        302  7.0   21.183   27.304  201.502  207.898
 dbcsr_finalize                   12210  8.8    0.150    0.207   81.369  119.115
 dbcsr_merge_all                  11243 10.0    0.894    1.224   81.105  118.838
 dbcsr_sort_data                  10881 11.0   71.654  108.533   71.654  108.533
 mp_allgather_i12                 10881  9.0   49.261   83.703   49.261   83.703
 mp_allgatherv_dv                 10881  9.0   64.898   71.070   64.898   71.070
 replsiesta_struct_create           101  7.0   10.230   18.769   55.041   63.787
 -------------------------------------------------------------------------------

 The number of warnings for this run is : 1
 
 -------------------------------------------------------------------------------
  **** **** ******  **  PROGRAM ENDED AT                 2023-02-17 12:38:46.891
 ***** ** ***  *** **   PROGRAM RAN ON                     cn1140.scarf.rl.ac.uk
 **    ****   ******    PROGRAM RAN BY                                 scarf1157
 ***** **    ** ** **   PROGRAM PROCESS ID                                 11129
  **** **  *******  **  PROGRAM STOPPED IN /work4/scd/scarf1157/work/testing/cp2
                                           k-smeagol/bdt/cp2k/hollow-site/transp
                                           ort-cp2k/5-4/geometry-ordered/3x3-4/s
                                           z/kpoints_bulk-31_em-1-1-1
