 DBCSR| CPU Multiplication driver                                           XSMM
 DBCSR| Multrec recursion limit                                              512
 DBCSR| Multiplication stack size                                           1000
 DBCSR| Maximum elements for images                                    UNLIMITED
 DBCSR| Multiplicative factor virtual images                                   1
 DBCSR| Use multiplication densification                                       T
 DBCSR| Multiplication size stacks                                             3
 DBCSR| Use memory pool for CPU allocation                                     F
 DBCSR| Number of 3D layers                                               SINGLE
 DBCSR| Use MPI memory allocation                                              F
 DBCSR| Use RMA algorithm                                                      F
 DBCSR| Use Communication thread                                               T
 DBCSR| Communication thread load                                             87
 DBCSR| MPI: My node id                                                        0
 DBCSR| MPI: Number of nodes                                                 240
 DBCSR| OMP: Current number of threads                                         1
 DBCSR| OMP: Max number of threads                                             1
 DBCSR| Split modifier for TAS multiplication algorithm                  1.0E+00


  **** **** ******  **  PROGRAM STARTED AT               2023-02-22 11:04:21.583
 ***** ** ***  *** **   PROGRAM STARTED ON                 cn1036.scarf.rl.ac.uk
 **    ****   ******    PROGRAM STARTED BY                             scarf1157
 ***** **    ** ** **   PROGRAM PROCESS ID                                  3107
  **** **  *******  **  PROGRAM STARTED IN /work4/scd/scarf1157/work/testing/cp2
                                           k-smeagol/bdt/cp2k/hollow-site/transp
                                           ort-cp2k/5-4/geometry-ordered/3x3-4/s
                                           z/bulk_layers-4/geo_opt/dzvp/Au-S-2.5
                                           _dft_cg

 CP2K| version string:                 CP2K version 2022.1 (Development Version)
 CP2K| source code revision number:                                  git:1ef701d
 CP2K| cp2kflags: omp fftw3 libxc parallel mpi3 scalapack xsmm spglib           
 CP2K| is freely available from                            https://www.cp2k.org/
 CP2K| Program compiled at                          Thu 26 Jan 13:39:53 GMT 2023
 CP2K| Program compiled on                                 cn1108.scarf.rl.ac.uk
 CP2K| Program compiled for                                                local
 CP2K| Data directory path    /home/vol07/scarf1157/code/smeagol/cp2k-smeagol/sc
 CP2K| Input file name                                             2_dft_wfn.inp

 GLOBAL| Force Environment number                                              1
 GLOBAL| Basis set file name                                        BASIS_MOLOPT
 GLOBAL| Potential file name                                      GTH_POTENTIALS
 GLOBAL| MM Potential file name                                     MM_POTENTIAL
 GLOBAL| Coordinate file name                                             em.xyz
 GLOBAL| Method name                                                        CP2K
 GLOBAL| Project name                                                    dft_wfn
 GLOBAL| Run type                                                        GEO_OPT
 GLOBAL| FFT library                                                       FFTW3
 GLOBAL| Diagonalization library                                       ScaLAPACK
 GLOBAL| Orthonormality check for eigenvectors                          DISABLED
 GLOBAL| Matrix multiplication library                                 ScaLAPACK
 GLOBAL| All-to-all communication in single precision                          F
 GLOBAL| FFTs using library dependent lengths                                  T
 GLOBAL| Grid backend                                                       AUTO
 GLOBAL| Global print level                                               MEDIUM
 GLOBAL| MPI I/O enabled                                                       T
 GLOBAL| Total number of message passing processes                           240
 GLOBAL| Number of threads for this process                                    1
 GLOBAL| This output is from process                                           0
 GLOBAL| Stack size for threads created by OpenMP (OMP_STACKSIZE)        default
 GLOBAL| CPU model name                         AMD EPYC 7502P 32-Core Processor
 GLOBAL| CPUID                                                              1002

 MEMORY| system memory details [Kb]
 MEMORY|                        rank 0           min           max       average
 MEMORY| MemTotal            263896984     263896980     263896984     263896982
 MEMORY| MemFree              55993360      52055468     245170868     136841120
 MEMORY| Buffers                   208           204          2624          1669
 MEMORY| Cached              188474968       7769964     195642204     111407134
 MEMORY| Slab                  1712696        859080       1712696       1292474
 MEMORY| SReclaimable          1179228        412256       1179228        798414
 MEMORY| MemLikelyFree       245647764     245647764     253355712     249048338


 *** Fundamental physical constants (SI units) ***

 *** Literature: B. J. Mohr and B. N. Taylor,
 ***             CODATA recommended values of the fundamental physical
 ***             constants: 2006, Web Version 5.1
 ***             http://physics.nist.gov/constants

 Speed of light in vacuum [m/s]                             2.99792458000000E+08
 Magnetic constant or permeability of vacuum [N/A**2]       1.25663706143592E-06
 Electric constant or permittivity of vacuum [F/m]          8.85418781762039E-12
 Planck constant (h) [J*s]                                  6.62606896000000E-34
 Planck constant (h-bar) [J*s]                              1.05457162825177E-34
 Elementary charge [C]                                      1.60217648700000E-19
 Electron mass [kg]                                         9.10938215000000E-31
 Electron g factor [ ]                                     -2.00231930436220E+00
 Proton mass [kg]                                           1.67262163700000E-27
 Fine-structure constant                                    7.29735253760000E-03
 Rydberg constant [1/m]                                     1.09737315685270E+07
 Avogadro constant [1/mol]                                  6.02214179000000E+23
 Boltzmann constant [J/K]                                   1.38065040000000E-23
 Atomic mass unit [kg]                                      1.66053878200000E-27
 Bohr radius [m]                                            5.29177208590000E-11

 *** Conversion factors ***

 [u] -> [a.u.]                                              1.82288848426455E+03
 [Angstrom] -> [Bohr] = [a.u.]                              1.88972613288564E+00
 [a.u.] = [Bohr] -> [Angstrom]                              5.29177208590000E-01
 [a.u.] -> [s]                                              2.41888432650478E-17
 [a.u.] -> [fs]                                             2.41888432650478E-02
 [a.u.] -> [J]                                              4.35974393937059E-18
 [a.u.] -> [N]                                              8.23872205491840E-08
 [a.u.] -> [K]                                              3.15774647902944E+05
 [a.u.] -> [kJ/mol]                                         2.62549961709828E+03
 [a.u.] -> [kcal/mol]                                       6.27509468713739E+02
 [a.u.] -> [Pa]                                             2.94210107994716E+13
 [a.u.] -> [bar]                                            2.94210107994716E+08
 [a.u.] -> [atm]                                            2.90362800883016E+08
 [a.u.] -> [eV]                                             2.72113838565563E+01
 [a.u.] -> [Hz]                                             6.57968392072181E+15
 [a.u.] -> [1/cm] (wave numbers)                            2.19474631370540E+05
 [a.u./Bohr**2] -> [1/cm]                                   5.14048714338585E+03
 

 CELL_TOP| Volume [angstrom^3]:                                      2338.984607
 CELL_TOP| Vector a [angstrom     8.292     0.000     0.000   |a| =     8.292000
 CELL_TOP| Vector b [angstrom     0.000     8.292     0.000   |b| =     8.292000
 CELL_TOP| Vector c [angstrom     0.000     0.000    34.018   |c| =    34.018000
 CELL_TOP| Angle (b,c), alpha [degree]:                                90.000000
 CELL_TOP| Angle (a,c), beta  [degree]:                                90.000000
 CELL_TOP| Angle (a,b), gamma [degree]:                                90.000000
 CELL_TOP| Numerically orthorhombic:                                         YES
 CELL_TOP| Periodicity                                                       XYZ

 GENERATE|  Preliminary Number of Bonds generated:                             0
 GENERATE|  Achieved consistency in connectivity generation.

 CELL| Volume [angstrom^3]:                                          2338.984607
 CELL| Vector a [angstrom]:       8.292     0.000     0.000   |a| =     8.292000
 CELL| Vector b [angstrom]:       0.000     8.292     0.000   |b| =     8.292000
 CELL| Vector c [angstrom]:       0.000     0.000    34.018   |c| =    34.018000
 CELL| Angle (b,c), alpha [degree]:                                    90.000000
 CELL| Angle (a,c), beta  [degree]:                                    90.000000
 CELL| Angle (a,b), gamma [degree]:                                    90.000000
 CELL| Numerically orthorhombic:                                             YES
 CELL| Periodicity                                                           XYZ

 CELL_REF| Volume [angstrom^3]:                                      2338.984607
 CELL_REF| Vector a [angstrom     8.292     0.000     0.000   |a| =     8.292000
 CELL_REF| Vector b [angstrom     0.000     8.292     0.000   |b| =     8.292000
 CELL_REF| Vector c [angstrom     0.000     0.000    34.018   |c| =    34.018000
 CELL_REF| Angle (b,c), alpha [degree]:                                90.000000
 CELL_REF| Angle (a,c), beta  [degree]:                                90.000000
 CELL_REF| Angle (a,b), gamma [degree]:                                90.000000
 CELL_REF| Numerically orthorhombic:                                         YES
 CELL_REF| Periodicity                                                       XYZ

 *******************************************************************************
                                    Kpoints
 *******************************************************************************
 BRILLOUIN| K-point scheme                                        Monkhorst-Pack
 BRILLOUIN| K-Point grid                                             2    2    1
 BRILLOUIN| Accuracy in Symmetry determination                      0.100000E-07
 BRILLOUIN| K-Point point group symmetrization                               OFF
 BRILLOUIN| Wavefunction type                                            COMPLEX
 BRILLOUIN| Use full k-point grid     
 BRILLOUIN| List of Kpoints [2 Pi/Bohr]                                        4
 BRILLOUIN| Number           Weight            X              Y              Z
 BRILLOUIN|     1           0.25000       -0.25000       -0.25000        0.00000
 BRILLOUIN|     2           0.25000       -0.25000        0.25000        0.00000
 BRILLOUIN|     3           0.25000        0.25000       -0.25000        0.00000
 BRILLOUIN|     4           0.25000        0.25000        0.25000        0.00000
 *******************************************************************************

 *******************************************************************************
 *******************************************************************************
 **                                                                           **
 **     #####                         ##              ##                      **
 **    ##   ##            ##          ##              ##                      **
 **   ##     ##                       ##            ######                    **
 **   ##     ##  ##   ##  ##   #####  ##  ##   ####   ##    #####    #####    **
 **   ##     ##  ##   ##  ##  ##      ## ##   ##      ##   ##   ##  ##   ##   **
 **   ##  ## ##  ##   ##  ##  ##      ####     ###    ##   ######   ######    **
 **    ##  ###   ##   ##  ##  ##      ## ##      ##   ##   ##       ##        **
 **     #######   #####   ##   #####  ##  ##  ####    ##    #####   ##        **
 **           ##                                                    ##        **
 **                                                                           **
 **                                                ... make the atoms dance   **
 **                                                                           **
 **            Copyright (C) by CP2K developers group (2000-2022)             **
 **                      J. Chem. Phys. 152, 194103 (2020)                    **
 **                                                                           **
 *******************************************************************************

 DFT| Spin restricted Kohn-Sham (RKS) calculation                            RKS
 DFT| Multiplicity                                                             1
 DFT| Number of spin states                                                    1
 DFT| Charge                                                                   0
 DFT| Self-interaction correction (SIC)                                       NO
 DFT| Cutoffs: density                                              1.000000E-10
 DFT|          gradient                                             1.000000E-10
 DFT|          tau                                                  1.000000E-10
 DFT|          cutoff_smoothing_range                               0.000000E+00
 DFT| XC density smoothing                                                  NONE
 DFT| XC derivatives                                                          PW

 FUNCTIONAL| PADE:
 FUNCTIONAL| S. Goedecker, M. Teter and J. Hutter, Phys. Rev. B 54, 1703 (1996) 


 QS| Method:                                                                 GPW
 QS| Density plane wave grid type                        NON-SPHERICAL FULLSPACE
 QS| Number of grid levels:                                                    4
 QS| Density cutoff [a.u.]:                                                200.0
 QS| Multi grid cutoff [a.u.]: 1) grid level                               200.0
 QS|                           2) grid level                                66.7
 QS|                           3) grid level                                22.2
 QS|                           4) grid level                                 7.4
 QS| Grid level progression factor:                                          3.0
 QS| Relative density cutoff [a.u.]:                                        20.0
 QS| Interaction thresholds: eps_pgf_orb:                                1.0E-05
 QS|                         eps_filter_matrix:                          0.0E+00
 QS|                         eps_core_charge:                            1.0E-12
 QS|                         eps_rho_gspace:                             1.0E-10
 QS|                         eps_rho_rspace:                             1.0E-10
 QS|                         eps_gvg_rspace:                             1.0E-05
 QS|                         eps_ppl:                                    1.0E-02
 QS|                         eps_ppnl:                                   1.0E-07


 ATOMIC KIND INFORMATION

  1. Atomic kind: Au                                    Number of atoms:     104

     Orbital Basis Set                                         SZV-MOLOPT-SR-GTH

       Number of orbital shell sets:                                           1
       Number of orbital shells:                                               3
       Number of primitive Cartesian functions:                                5
       Number of Cartesian basis functions:                                   10
       Number of spherical basis functions:                                    9
       Norm type:                                                              2

       Normalised Cartesian orbitals:

                        Set   Shell   Orbital            Exponent    Coefficient

                          1       1    2s                2.950008       0.074626
                                                         1.563057      -0.007898
                                                         0.666664      -0.297688
                                                         0.251083       0.136809
                                                         0.081714       0.088198

                          1       2    3px               2.950008       0.148824
                                                         1.563057       0.025430
                                                         0.666664      -0.123003
                                                         0.251083       0.033648
                                                         0.081714       0.059008
                          1       2    3py               2.950008       0.148824
                                                         1.563057       0.025430
                                                         0.666664      -0.123003
                                                         0.251083       0.033648
                                                         0.081714       0.059008
                          1       2    3pz               2.950008       0.148824
                                                         1.563057       0.025430
                                                         0.666664      -0.123003
                                                         0.251083       0.033648
                                                         0.081714       0.059008

                          1       3    4dx2              2.950008      -0.139595
                                                         1.563057       1.319655
                                                         0.666664       0.377081
                                                         0.251083       0.046872
                                                         0.081714       0.001393
                          1       3    4dxy              2.950008      -0.241786
                                                         1.563057       2.285709
                                                         0.666664       0.653124
                                                         0.251083       0.081185
                                                         0.081714       0.002412
                          1       3    4dxz              2.950008      -0.241786
                                                         1.563057       2.285709
                                                         0.666664       0.653124
                                                         0.251083       0.081185
                                                         0.081714       0.002412
                          1       3    4dy2              2.950008      -0.139595
                                                         1.563057       1.319655
                                                         0.666664       0.377081
                                                         0.251083       0.046872
                                                         0.081714       0.001393
                          1       3    4dyz              2.950008      -0.241786
                                                         1.563057       2.285709
                                                         0.666664       0.653124
                                                         0.251083       0.081185
                                                         0.081714       0.002412
                          1       3    4dz2              2.950008      -0.139595
                                                         1.563057       1.319655
                                                         0.666664       0.377081
                                                         0.251083       0.046872
                                                         0.081714       0.001393

       Atomic covalent radius [Angstrom]:                                  1.340

       Atomic van der Waals radius [Angstrom]:                             1.660

     GTH Potential information for                                  GTH-PADE-q11

       Description:                       Goedecker-Teter-Hutter pseudopotential
                                           Goedecker et al., PRB 54, 1703 (1996)
                                          Hartwigsen et al., PRB 58, 3641 (1998)
                                                      Krack, TCA 114, 145 (2005)

       Gaussian exponent of the core charge distribution:               1.436369
       Electronic configuration (s p d ...):                           1   0  10

       Parameters of the local part of the GTH pseudopotential:

                          rloc        C1          C2          C3          C4
                        0.590000   11.604428

       Parameters of the non-local part of the GTH pseudopotential:

                   l      r(l)      h(i,j,l)

                   0    0.521180    2.538614   -1.046137
                                   -1.046137    2.701113
                   1    0.630613    0.394853   -0.869592
                                   -0.869592    2.057831
                   2    0.440706   -4.719070    0.727771
                                    0.727771   -1.650429

  2. Atomic kind: S                                     Number of atoms:       2

     Orbital Basis Set                                        DZVP-MOLOPT-SR-GTH

       Number of orbital shell sets:                                           1
       Number of orbital shells:                                               5
       Number of primitive Cartesian functions:                                4
       Number of Cartesian basis functions:                                   14
       Number of spherical basis functions:                                   13
       Norm type:                                                              2

       Normalised Cartesian orbitals:

                        Set   Shell   Orbital            Exponent    Coefficient

                          1       1    2s                2.215855       0.308496
                                                         1.131471       0.138505
                                                         0.410168      -0.373736
                                                         0.140587      -0.040370

                          1       2    3s                2.215855      -0.329528
                                                         1.131471      -0.517509
                                                         0.410168       0.787368
                                                         0.140587      -0.322786

                          1       3    3px               2.215855       0.420434
                                                         1.131471      -0.319283
                                                         0.410168      -0.335323
                                                         0.140587      -0.030976
                          1       3    3py               2.215855       0.420434
                                                         1.131471      -0.319283
                                                         0.410168      -0.335323
                                                         0.140587      -0.030976
                          1       3    3pz               2.215855       0.420434
                                                         1.131471      -0.319283
                                                         0.410168      -0.335323
                                                         0.140587      -0.030976

                          1       4    4px               2.215855       0.241296
                                                         1.131471      -0.170582
                                                         0.410168      -0.186977
                                                         0.140587       0.153509
                          1       4    4py               2.215855       0.241296
                                                         1.131471      -0.170582
                                                         0.410168      -0.186977
                                                         0.140587       0.153509
                          1       4    4pz               2.215855       0.241296
                                                         1.131471      -0.170582
                                                         0.410168      -0.186977
                                                         0.140587       0.153509

                          1       5    4dx2              2.215855       0.573559
                                                         1.131471       0.544926
                                                         0.410168       0.228284
                                                         0.140587       0.008811
                          1       5    4dxy              2.215855       0.993434
                                                         1.131471       0.943840
                                                         0.410168       0.395400
                                                         0.140587       0.015260
                          1       5    4dxz              2.215855       0.993434
                                                         1.131471       0.943840
                                                         0.410168       0.395400
                                                         0.140587       0.015260
                          1       5    4dy2              2.215855       0.573559
                                                         1.131471       0.544926
                                                         0.410168       0.228284
                                                         0.140587       0.008811
                          1       5    4dyz              2.215855       0.993434
                                                         1.131471       0.943840
                                                         0.410168       0.395400
                                                         0.140587       0.015260
                          1       5    4dz2              2.215855       0.573559
                                                         1.131471       0.544926
                                                         0.410168       0.228284
                                                         0.140587       0.008811

       Atomic covalent radius [Angstrom]:                                  1.020

       Atomic van der Waals radius [Angstrom]:                             1.800

     GTH Potential information for                                   GTH-PADE-q6

       Description:                       Goedecker-Teter-Hutter pseudopotential
                                           Goedecker et al., PRB 54, 1703 (1996)
                                          Hartwigsen et al., PRB 58, 3641 (1998)
                                                      Krack, TCA 114, 145 (2005)

       Gaussian exponent of the core charge distribution:               2.834467
       Electronic configuration (s p d ...):                               2   4

       Parameters of the local part of the GTH pseudopotential:

                          rloc        C1          C2          C3          C4
                        0.420000   -6.554492

       Parameters of the non-local part of the GTH pseudopotential:

                   l      r(l)      h(i,j,l)

                   0    0.361757    7.905303   -1.731881
                                   -1.731881    4.471698
                   1    0.405285    3.866579

  3. Atomic kind: C                                     Number of atoms:       6

     Orbital Basis Set                                        DZVP-MOLOPT-SR-GTH

       Number of orbital shell sets:                                           1
       Number of orbital shells:                                               5
       Number of primitive Cartesian functions:                                5
       Number of Cartesian basis functions:                                   14
       Number of spherical basis functions:                                   13
       Norm type:                                                              2

       Normalised Cartesian orbitals:

                        Set   Shell   Orbital            Exponent    Coefficient

                          1       1    2s                5.605331       0.322515
                                                         2.113016       0.213043
                                                         0.769911      -0.209686
                                                         0.348157      -0.219794
                                                         0.128212      -0.022789

                          1       2    3s                5.605331       0.552234
                                                         2.113016       0.082072
                                                         0.769911       0.007843
                                                         0.348157       0.136893
                                                         0.128212       0.074283

                          1       3    3px               5.605331      -0.703879
                                                         2.113016      -0.642521
                                                         0.769911      -0.374851
                                                         0.348157      -0.139743
                                                         0.128212      -0.027849
                          1       3    3py               5.605331      -0.703879
                                                         2.113016      -0.642521
                                                         0.769911      -0.374851
                                                         0.348157      -0.139743
                                                         0.128212      -0.027849
                          1       3    3pz               5.605331      -0.703879
                                                         2.113016      -0.642521
                                                         0.769911      -0.374851
                                                         0.348157      -0.139743
                                                         0.128212      -0.027849

                          1       4    4px               5.605331      -0.480376
                                                         2.113016      -0.552894
                                                         0.769911      -0.316145
                                                         0.348157       0.210505
                                                         0.128212       0.076095
                          1       4    4py               5.605331      -0.480376
                                                         2.113016      -0.552894
                                                         0.769911      -0.316145
                                                         0.348157       0.210505
                                                         0.128212       0.076095
                          1       4    4pz               5.605331      -0.480376
                                                         2.113016      -0.552894
                                                         0.769911      -0.316145
                                                         0.348157       0.210505
                                                         0.128212       0.076095

                          1       5    4dx2              5.605331       0.640026
                                                         2.113016       0.274300
                                                         0.769911       0.446711
                                                         0.348157       0.028674
                                                         0.128212       0.029790
                          1       5    4dxy              5.605331       1.108557
                                                         2.113016       0.475102
                                                         0.769911       0.773726
                                                         0.348157       0.049666
                                                         0.128212       0.051599
                          1       5    4dxz              5.605331       1.108557
                                                         2.113016       0.475102
                                                         0.769911       0.773726
                                                         0.348157       0.049666
                                                         0.128212       0.051599
                          1       5    4dy2              5.605331       0.640026
                                                         2.113016       0.274300
                                                         0.769911       0.446711
                                                         0.348157       0.028674
                                                         0.128212       0.029790
                          1       5    4dyz              5.605331       1.108557
                                                         2.113016       0.475102
                                                         0.769911       0.773726
                                                         0.348157       0.049666
                                                         0.128212       0.051599
                          1       5    4dz2              5.605331       0.640026
                                                         2.113016       0.274300
                                                         0.769911       0.446711
                                                         0.348157       0.028674
                                                         0.128212       0.029790

       Atomic covalent radius [Angstrom]:                                  0.770

       Atomic van der Waals radius [Angstrom]:                             1.700

     GTH Potential information for                                   GTH-PADE-q4

       Description:                       Goedecker-Teter-Hutter pseudopotential
                                           Goedecker et al., PRB 54, 1703 (1996)
                                          Hartwigsen et al., PRB 58, 3641 (1998)
                                                      Krack, TCA 114, 145 (2005)

       Gaussian exponent of the core charge distribution:               4.109048
       Electronic configuration (s p d ...):                               2   2

       Parameters of the local part of the GTH pseudopotential:

                          rloc        C1          C2          C3          C4
                        0.348830   -8.513771    1.228432

       Parameters of the non-local part of the GTH pseudopotential:

                   l      r(l)      h(i,j,l)

                   0    0.304553    9.522842
                   1    0.232677

  4. Atomic kind: H                                     Number of atoms:       4

     Orbital Basis Set                                        DZVP-MOLOPT-SR-GTH

       Number of orbital shell sets:                                           1
       Number of orbital shells:                                               3
       Number of primitive Cartesian functions:                                5
       Number of Cartesian basis functions:                                    5
       Number of spherical basis functions:                                    5
       Norm type:                                                              2

       Normalised Cartesian orbitals:

                        Set   Shell   Orbital            Exponent    Coefficient

                          1       1    2s               10.068468      -0.133023
                                                         2.680223      -0.177618
                                                         0.791502      -0.258419
                                                         0.239116      -0.107525
                                                         0.082193      -0.014019

                          1       2    3s               10.068468       0.344673
                                                         2.680223       1.819821
                                                         0.791502      -0.999069
                                                         0.239116       0.017430
                                                         0.082193       0.082660

                          1       3    3px              10.068468       0.155326
                                                         2.680223       0.367157
                                                         0.791502       0.311480
                                                         0.239116       0.080105
                                                         0.082193       0.033440
                          1       3    3py              10.068468       0.155326
                                                         2.680223       0.367157
                                                         0.791502       0.311480
                                                         0.239116       0.080105
                                                         0.082193       0.033440
                          1       3    3pz              10.068468       0.155326
                                                         2.680223       0.367157
                                                         0.791502       0.311480
                                                         0.239116       0.080105
                                                         0.082193       0.033440

       Atomic covalent radius [Angstrom]:                                  0.320

       Atomic van der Waals radius [Angstrom]:                             1.090

     GTH Potential information for                                   GTH-PADE-q1

       Description:                       Goedecker-Teter-Hutter pseudopotential
                                           Goedecker et al., PRB 54, 1703 (1996)
                                          Hartwigsen et al., PRB 58, 3641 (1998)
                                                      Krack, TCA 114, 145 (2005)

       Gaussian exponent of the core charge distribution:              12.500000
       Electronic configuration (s p d ...):                                   1

       Parameters of the local part of the GTH pseudopotential:

                          rloc        C1          C2          C3          C4
                        0.200000   -4.180237    0.725075


 MOLECULE KIND INFORMATION


 All atoms are their own molecule, skipping detailed information


 TOTAL NUMBERS AND MAXIMUM NUMBERS

  Total number of            - Atomic kinds:                                   4
                             - Atoms:                                        116
                             - Shell sets:                                   116
                             - Shells:                                       364
                             - Primitive Cartesian functions:                578
                             - Cartesian basis functions:                   1172
                             - Spherical basis functions:                   1060

  Maximum angular momentum of- Orbital basis functions:                        2
                             - Local part of the GTH pseudopotential:          2
                             - Non-local part of the GTH pseudopotential:      4


 MODULE QUICKSTEP: ATOMIC COORDINATES IN ANGSTROM

   Atom Kind Element         X             Y             Z       Z(eff)     Mass
      1    1 Au   79      0.000000      0.000000      0.000000  11.0000 196.9666
      2    1 Au   79      0.000000      4.146000      0.000000  11.0000 196.9666
      3    1 Au   79      2.073000      2.073000      0.000000  11.0000 196.9666
      4    1 Au   79      2.073000      6.219000      0.000000  11.0000 196.9666
      5    1 Au   79      4.146000      0.000000      0.000000  11.0000 196.9666
      6    1 Au   79      4.146000      4.146000      0.000000  11.0000 196.9666
      7    1 Au   79      6.219000      2.073000      0.000000  11.0000 196.9666
      8    1 Au   79      6.219000      6.219000      0.000000  11.0000 196.9666
      9    1 Au   79      0.000000      2.073000      2.073000  11.0000 196.9666
     10    1 Au   79      0.000000      6.219000      2.073000  11.0000 196.9666
     11    1 Au   79      2.073000      0.000000      2.073000  11.0000 196.9666
     12    1 Au   79      2.073000      4.146000      2.073000  11.0000 196.9666
     13    1 Au   79      4.146000      2.073000      2.073000  11.0000 196.9666
     14    1 Au   79      4.146000      6.219000      2.073000  11.0000 196.9666
     15    1 Au   79      6.219000      0.000000      2.073000  11.0000 196.9666
     16    1 Au   79      6.219000      4.146000      2.073000  11.0000 196.9666
     17    1 Au   79      0.000000      0.000000      4.146000  11.0000 196.9666
     18    1 Au   79      0.000000      4.146000      4.146000  11.0000 196.9666
     19    1 Au   79      2.073000      2.073000      4.146000  11.0000 196.9666
     20    1 Au   79      2.073000      6.219000      4.146000  11.0000 196.9666
     21    1 Au   79      4.146000      0.000000      4.146000  11.0000 196.9666
     22    1 Au   79      4.146000      4.146000      4.146000  11.0000 196.9666
     23    1 Au   79      6.219000      2.073000      4.146000  11.0000 196.9666
     24    1 Au   79      6.219000      6.219000      4.146000  11.0000 196.9666
     25    1 Au   79      0.000000      2.073000      6.219000  11.0000 196.9666
     26    1 Au   79      0.000000      6.219000      6.219000  11.0000 196.9666
     27    1 Au   79      2.073000      0.000000      6.219000  11.0000 196.9666
     28    1 Au   79      2.073000      4.146000      6.219000  11.0000 196.9666
     29    1 Au   79      4.146000      2.073000      6.219000  11.0000 196.9666
     30    1 Au   79      4.146000      6.219000      6.219000  11.0000 196.9666
     31    1 Au   79      6.219000      0.000000      6.219000  11.0000 196.9666
     32    1 Au   79      6.219000      4.146000      6.219000  11.0000 196.9666
     33    1 Au   79      0.000000      0.000000      8.292000  11.0000 196.9666
     34    1 Au   79      0.000000      4.146000      8.292000  11.0000 196.9666
     35    1 Au   79      2.073000      2.073000      8.292000  11.0000 196.9666
     36    1 Au   79      2.073000      6.219000      8.292000  11.0000 196.9666
     37    1 Au   79      4.146000      0.000000      8.292000  11.0000 196.9666
     38    1 Au   79      4.146000      4.146000      8.292000  11.0000 196.9666
     39    1 Au   79      6.219000      2.073000      8.292000  11.0000 196.9666
     40    1 Au   79      6.219000      6.219000      8.292000  11.0000 196.9666
     41    1 Au   79      0.000000      2.073000     10.365000  11.0000 196.9666
     42    1 Au   79      0.000000      6.219000     10.365000  11.0000 196.9666
     43    1 Au   79      2.073000      0.000000     10.365000  11.0000 196.9666
     44    1 Au   79      2.073000      4.146000     10.365000  11.0000 196.9666
     45    1 Au   79      4.146000      2.073000     10.365000  11.0000 196.9666
     46    1 Au   79      4.146000      6.219000     10.365000  11.0000 196.9666
     47    1 Au   79      6.219000      0.000000     10.365000  11.0000 196.9666
     48    1 Au   79      6.219000      4.146000     10.365000  11.0000 196.9666
     49    1 Au   79      0.000000      0.000000     12.438000  11.0000 196.9666
     50    1 Au   79      0.000000      4.146000     12.438000  11.0000 196.9666
     51    1 Au   79      2.073000      2.073000     12.438000  11.0000 196.9666
     52    1 Au   79      2.073000      6.219000     12.438000  11.0000 196.9666
     53    1 Au   79      4.146000      0.000000     12.438000  11.0000 196.9666
     54    1 Au   79      4.146000      4.146000     12.438000  11.0000 196.9666
     55    1 Au   79      6.219000      2.073000     12.438000  11.0000 196.9666
     56    1 Au   79      6.219000      6.219000     12.438000  11.0000 196.9666
     57    2 S    16      4.146000      2.073000     13.835000   6.0000  32.0650
     58    3 C     6      4.149000      2.077000     15.597000   4.0000  12.0107
     59    4 H     1      2.047000      2.103000     15.780000   1.0000   1.0079
     60    4 H     1      6.244000      2.103000     15.786000   1.0000   1.0079
     61    3 C     6      2.940000      2.083000     16.297000   4.0000  12.0107
     62    3 C     6      5.348000      2.083000     16.297000   4.0000  12.0107
     63    3 C     6      2.933000      2.061000     17.720000   4.0000  12.0107
     64    3 C     6      5.341000      2.061000     17.720000   4.0000  12.0107
     65    4 H     1      2.037000      2.041000     18.232000   1.0000   1.0079
     66    4 H     1      6.234000      2.041000     18.237000   1.0000   1.0079
     67    3 C     6      4.132000      2.067000     18.421000   4.0000  12.0107
     68    2 S    16      4.146000      2.073000     20.182000   6.0000  32.0650
     69    1 Au   79      0.000000      0.000000     21.580000  11.0000 196.9666
     70    1 Au   79      0.000000      4.146000     21.580000  11.0000 196.9666
     71    1 Au   79      2.073000      2.073000     21.580000  11.0000 196.9666
     72    1 Au   79      2.073000      6.219000     21.580000  11.0000 196.9666
     73    1 Au   79      4.146000      0.000000     21.580000  11.0000 196.9666
     74    1 Au   79      4.146000      4.146000     21.580000  11.0000 196.9666
     75    1 Au   79      6.219000      2.073000     21.580000  11.0000 196.9666
     76    1 Au   79      6.219000      6.219000     21.580000  11.0000 196.9666
     77    1 Au   79      0.000000      2.073000     23.653000  11.0000 196.9666
     78    1 Au   79      0.000000      6.219000     23.653000  11.0000 196.9666
     79    1 Au   79      2.073000      0.000000     23.653000  11.0000 196.9666
     80    1 Au   79      2.073000      4.146000     23.653000  11.0000 196.9666
     81    1 Au   79      4.146000      2.073000     23.653000  11.0000 196.9666
     82    1 Au   79      4.146000      6.219000     23.653000  11.0000 196.9666
     83    1 Au   79      6.219000      0.000000     23.653000  11.0000 196.9666
     84    1 Au   79      6.219000      4.146000     23.653000  11.0000 196.9666
     85    1 Au   79      0.000000      0.000000     25.726000  11.0000 196.9666
     86    1 Au   79      0.000000      4.146000     25.726000  11.0000 196.9666
     87    1 Au   79      2.073000      2.073000     25.726000  11.0000 196.9666
     88    1 Au   79      2.073000      6.219000     25.726000  11.0000 196.9666
     89    1 Au   79      4.146000      0.000000     25.726000  11.0000 196.9666
     90    1 Au   79      4.146000      4.146000     25.726000  11.0000 196.9666
     91    1 Au   79      6.219000      2.073000     25.726000  11.0000 196.9666
     92    1 Au   79      6.219000      6.219000     25.726000  11.0000 196.9666
     93    1 Au   79      0.000000      2.073000     27.799000  11.0000 196.9666
     94    1 Au   79      0.000000      6.219000     27.799000  11.0000 196.9666
     95    1 Au   79      2.073000      0.000000     27.799000  11.0000 196.9666
     96    1 Au   79      2.073000      4.146000     27.799000  11.0000 196.9666
     97    1 Au   79      4.146000      2.073000     27.799000  11.0000 196.9666
     98    1 Au   79      4.146000      6.219000     27.799000  11.0000 196.9666
     99    1 Au   79      6.219000      0.000000     27.799000  11.0000 196.9666
    100    1 Au   79      6.219000      4.146000     27.799000  11.0000 196.9666
    101    1 Au   79      0.000000      0.000000     29.872000  11.0000 196.9666
    102    1 Au   79      0.000000      4.146000     29.872000  11.0000 196.9666
    103    1 Au   79      2.073000      2.073000     29.872000  11.0000 196.9666
    104    1 Au   79      2.073000      6.219000     29.872000  11.0000 196.9666
    105    1 Au   79      4.146000      0.000000     29.872000  11.0000 196.9666
    106    1 Au   79      4.146000      4.146000     29.872000  11.0000 196.9666
    107    1 Au   79      6.219000      2.073000     29.872000  11.0000 196.9666
    108    1 Au   79      6.219000      6.219000     29.872000  11.0000 196.9666
    109    1 Au   79      0.000000      2.073000     31.945000  11.0000 196.9666
    110    1 Au   79      0.000000      6.219000     31.945000  11.0000 196.9666
    111    1 Au   79      2.073000      0.000000     31.945000  11.0000 196.9666
    112    1 Au   79      2.073000      4.146000     31.945000  11.0000 196.9666
    113    1 Au   79      4.146000      2.073000     31.945000  11.0000 196.9666
    114    1 Au   79      4.146000      6.219000     31.945000  11.0000 196.9666
    115    1 Au   79      6.219000      0.000000     31.945000  11.0000 196.9666
    116    1 Au   79      6.219000      4.146000     31.945000  11.0000 196.9666



 SCF PARAMETERS         Density guess:                                    ATOMIC
                        --------------------------------------------------------
                        max_scf:                                             100
                        max_scf_history:                                       0
                        max_diis:                                              4
                        --------------------------------------------------------
                        eps_scf:                                        1.00E-07
                        eps_scf_history:                                0.00E+00
                        eps_diis:                                       1.00E-01
                        eps_eigval:                                     1.00E-05
                        --------------------------------------------------------
                        level_shift [a.u.]:                             0.000000
                        added MOs                                       100    0
                        --------------------------------------------------------
                        Mixing method:                            BROYDEN_MIXING
                                                charge density mixing in g-space
                        --------------------------------------------------------
                        Smear method:                                FERMI_DIRAC
                        Electronic temperature [K]:                        293.0
                        Electronic temperature [a.u.]:                  9.28E-04
                        Accuracy threshold:                             1.00E-10
                        --------------------------------------------------------
                        No outer SCF

 PW_GRID| Information for grid number                                          1
 PW_GRID| Grid distributed over                                   240 processors
 PW_GRID| Real space group dimensions                                    12   20
 PW_GRID| the grid is blocked:                                               YES
 PW_GRID| Cutoff [a.u.]                                                    200.0
 PW_GRID| spherical cutoff:                                                   NO
 PW_GRID|   Bounds   1            -49      49                Points:          99
 PW_GRID|   Bounds   2            -49      49                Points:          99
 PW_GRID|   Bounds   3           -210     209                Points:         420
 PW_GRID| Volume element (a.u.^3)  0.3834E-02     Volume (a.u.^3)     15784.2507
 PW_GRID| Grid span                                                    FULLSPACE
 PW_GRID|   Distribution                         Average         Max         Min
 PW_GRID|   G-Vectors                            17151.8       18711       16632
 PW_GRID|   G-Rays                                 173.2         189         168
 PW_GRID|   Real Space Points                    17151.8       18711       16632

 PW_GRID| Information for grid number                                          2
 PW_GRID| Number of the reference grid                                         1
 PW_GRID| Grid distributed over                                   240 processors
 PW_GRID| Real space group dimensions                                    12   20
 PW_GRID| the grid is blocked:                                                NO
 PW_GRID| Cutoff [a.u.]                                                     66.7
 PW_GRID| spherical cutoff:                                                   NO
 PW_GRID|   Bounds   1            -30      29                Points:          60
 PW_GRID|   Bounds   2            -30      29                Points:          60
 PW_GRID|   Bounds   3           -120     119                Points:         240
 PW_GRID| Volume element (a.u.^3)  0.1827E-01     Volume (a.u.^3)     15784.2507
 PW_GRID| Grid span                                                    FULLSPACE
 PW_GRID|   Distribution                         Average         Max         Min
 PW_GRID|   G-Vectors                             3600.0       11340           0
 PW_GRID|   G-Rays                                  60.0         189           0
 PW_GRID|   Real Space Points                     3600.0        3600        3600

 PW_GRID| Information for grid number                                          3
 PW_GRID| Number of the reference grid                                         1
 PW_GRID| Grid distributed over                                   240 processors
 PW_GRID| Real space group dimensions                                    12   20
 PW_GRID| the grid is blocked:                                                NO
 PW_GRID| Cutoff [a.u.]                                                     22.2
 PW_GRID| spherical cutoff:                                                   NO
 PW_GRID|   Bounds   1            -16      16                Points:          33
 PW_GRID|   Bounds   2            -16      16                Points:          33
 PW_GRID|   Bounds   3            -70      69                Points:         140
 PW_GRID| Volume element (a.u.^3)  0.1035         Volume (a.u.^3)     15784.2507
 PW_GRID| Grid span                                                    FULLSPACE
 PW_GRID|   Distribution                         Average         Max         Min
 PW_GRID|   G-Vectors                              635.2        6237           0
 PW_GRID|   G-Rays                                  19.2         189           0
 PW_GRID|   Real Space Points                      635.2         840         280

 PW_GRID| Information for grid number                                          4
 PW_GRID| Number of the reference grid                                         1
 PW_GRID| Grid distributed over                                   240 processors
 PW_GRID| Real space group dimensions                                    12   20
 PW_GRID| the grid is blocked:                                                NO
 PW_GRID| Cutoff [a.u.]                                                      7.4
 PW_GRID| spherical cutoff:                                                   NO
 PW_GRID|   Bounds   1            -10       9                Points:          20
 PW_GRID|   Bounds   2            -10       9                Points:          20
 PW_GRID|   Bounds   3            -40      39                Points:          80
 PW_GRID| Volume element (a.u.^3)  0.4933         Volume (a.u.^3)     15784.2507
 PW_GRID| Grid span                                                    FULLSPACE
 PW_GRID|   Distribution                         Average         Max         Min
 PW_GRID|   G-Vectors                              133.3        3360           0
 PW_GRID|   G-Rays                                   6.7         168           0
 PW_GRID|   Real Space Points                      133.3         160          80

 POISSON| Solver                                                        PERIODIC
 POISSON| Periodicity                                                        XYZ

 RS_GRID| Information for grid number                                          1
 RS_GRID|   Bounds   1            -49      49                Points:          99
 RS_GRID|   Bounds   2            -49      49                Points:          99
 RS_GRID|   Bounds   3           -210     209                Points:         420
 RS_GRID| Real space distribution over                                  8 groups
 RS_GRID| Real space distribution along direction                              2
 RS_GRID| Border size                                                         30
 RS_GRID| Real space distribution over                                 30 groups
 RS_GRID| Real space distribution along direction                              3
 RS_GRID| Border size                                                         30
 RS_GRID|   Distribution                         Average         Max         Min
 RS_GRID|   Planes                                  72.4          73          72
 RS_GRID|   Distribution                         Average         Max         Min
 RS_GRID|   Planes                                  74.0          74          74

 RS_GRID| Information for grid number                                          2
 RS_GRID|   Bounds   1            -30      29                Points:          60
 RS_GRID|   Bounds   2            -30      29                Points:          60
 RS_GRID|   Bounds   3           -120     119                Points:         240
 RS_GRID| Real space distribution over                                  8 groups
 RS_GRID| Real space distribution along direction                              2
 RS_GRID| Border size                                                         22
 RS_GRID| Real space distribution over                                 30 groups
 RS_GRID| Real space distribution along direction                              3
 RS_GRID| Border size                                                         22
 RS_GRID|   Distribution                         Average         Max         Min
 RS_GRID|   Planes                                  51.5          52          51
 RS_GRID|   Distribution                         Average         Max         Min
 RS_GRID|   Planes                                  52.0          52          52

 RS_GRID| Information for grid number                                          3
 RS_GRID|   Bounds   1            -16      16                Points:          33
 RS_GRID|   Bounds   2            -16      16                Points:          33
 RS_GRID|   Bounds   3            -70      69                Points:         140
 RS_GRID| Real space fully replicated
 RS_GRID| Group size                                                           1

 RS_GRID| Information for grid number                                          4
 RS_GRID|   Bounds   1            -10       9                Points:          20
 RS_GRID|   Bounds   2            -10       9                Points:          20
 RS_GRID|   Bounds   3            -40      39                Points:          80
 RS_GRID| Real space fully replicated
 RS_GRID| Group size                                                           1

 KPOINTS| Number of kpoint groups                                              1
 KPOINTS| Size of each kpoint group                                          240
 KPOINTS| Number of kpoints per group                                          4

 *******************************************************************************
 ***                     STARTING GEOMETRY OPTIMIZATION                      ***
 ***                           CONJUGATE GRADIENTS                           ***
 *******************************************************************************

 Number of electrons:                                                       1184
 Number of occupied orbitals:                                                592
 Number of molecular orbitals:                                               692

 Number of orbital functions:                                               1060
 Number of independent orbital functions:                                   1060

 Extrapolation method: initial_guess

 Atomic guess: The first density matrix is obtained in terms of atomic orbitals
               and electronic configurations assigned to each atomic kind

 Guess for atomic kind: Au

 Electronic structure
    Total number of core electrons                                         68.00
    Total number of valence electrons                                      11.00
    Total number of electrons                                              79.00
    Multiplicity                                                   not specified
    S   [  2.00  2.00  2.00  2.00  2.00] 1.00
    P   [  6.00  6.00  6.00  6.00]
    D   [ 10.00 10.00]10.00
    F   [ 14.00]


 *******************************************************************************
                  Iteration          Convergence                     Energy [au]
 *******************************************************************************
                          1         0.00000                     -33.033218197848

 Energy components [Hartree]           Total Energy ::          -33.033218197848
                                        Band Energy ::           -1.147505983145
                                     Kinetic Energy ::           24.744064437587
                                   Potential Energy ::          -57.777282635435
                                      Virial (-V/T) ::            2.334995642336
                                        Core Energy ::          -60.197309615488
                                          XC Energy ::           -5.116883226844
                                     Coulomb Energy ::           32.280974644483
                       Total Pseudopotential Energy ::          -85.042885173964
                       Local Pseudopotential Energy ::          -66.341694915099
                    Nonlocal Pseudopotential Energy ::          -18.701190258865
                                        Confinement ::            1.015111208892

 Orbital energies  State     L     Occupation   Energy[a.u.]          Energy[eV]

                       1     0          1.000      -0.213792           -5.817572

                       1     2         10.000      -0.093371           -2.540765


 Total Electron Density at R=0:                                         0.000035

 Guess for atomic kind: S

 Electronic structure
    Total number of core electrons                                         10.00
    Total number of valence electrons                                       6.00
    Total number of electrons                                              16.00
    Multiplicity                                                   not specified
    S   [  2.00  2.00] 2.00
    P   [  6.00] 4.00


 *******************************************************************************
                  Iteration          Convergence                     Energy [au]
 *******************************************************************************
                          1        0.660537E-01                  -9.999037742061
                          2        0.355079E-01                  -9.999866133925
                          3        0.643643E-04                 -10.000216348790
                          4        0.796885E-07                 -10.000216349869

 Energy components [Hartree]           Total Energy ::          -10.000216349869
                                        Band Energy ::           -2.121494693893
                                     Kinetic Energy ::            3.789396533726
                                   Potential Energy ::          -13.789612883596
                                      Virial (-V/T) ::            3.638999709021
                                        Core Energy ::          -16.443520246889
                                          XC Energy ::           -2.069152856162
                                     Coulomb Energy ::            8.512456753182
                       Total Pseudopotential Energy ::          -20.288997453216
                       Local Pseudopotential Energy ::          -22.511640900540
                    Nonlocal Pseudopotential Energy ::            2.222643447324
                                        Confinement ::            0.560806726004

 Orbital energies  State     L     Occupation   Energy[a.u.]          Energy[eV]

                       1     0          2.000      -0.602923          -16.406376

                       1     1          4.000      -0.228912           -6.229013


 Total Electron Density at R=0:                                         0.000007

 Guess for atomic kind: C

 Electronic structure
    Total number of core electrons                                          2.00
    Total number of valence electrons                                       4.00
    Total number of electrons                                               6.00
    Multiplicity                                                   not specified
    S   [  2.00] 2.00
    P      2.00


 *******************************************************************************
                  Iteration          Convergence                     Energy [au]
 *******************************************************************************
                          1        0.186766E-01                  -5.268668754005
                          2        0.653829E-02                  -5.268804464977
                          3        0.876072E-04                  -5.268823127995
                          4        0.591072E-08                  -5.268823131348

 Energy components [Hartree]           Total Energy ::           -5.268823131348
                                        Band Energy ::           -1.059831606115
                                     Kinetic Energy ::            3.570408314829
                                   Potential Energy ::           -8.839231446178
                                      Virial (-V/T) ::            2.475692040449
                                        Core Energy ::           -8.468185581767
                                          XC Energy ::           -1.456932885419
                                     Coulomb Energy ::            4.656295335838
                       Total Pseudopotential Energy ::          -12.068029384961
                       Local Pseudopotential Energy ::          -12.916317339773
                    Nonlocal Pseudopotential Energy ::            0.848287954812
                                        Confinement ::            0.294354883653

 Orbital energies  State     L     Occupation   Energy[a.u.]          Energy[eV]

                       1     0          2.000      -0.408420          -11.113669

                       1     1          2.000      -0.121496           -3.306073


 Total Electron Density at R=0:                                         0.001169

 Guess for atomic kind: H

 Electronic structure
    Total number of core electrons                                          0.00
    Total number of valence electrons                                       1.00
    Total number of electrons                                               1.00
    Multiplicity                                                   not specified
    S      1.00


 *******************************************************************************
                  Iteration          Convergence                     Energy [au]
 *******************************************************************************
                          1        0.250941E-02                  -0.375252439250
                          2        0.570686E-04                  -0.375254289096
                          3        0.832215E-09                  -0.375254290053

 Energy components [Hartree]           Total Energy ::           -0.375254290053
                                        Band Energy ::           -0.076313317586
                                     Kinetic Energy ::            0.771359175731
                                   Potential Energy ::           -1.146613465784
                                      Virial (-V/T) ::            1.486484509239
                                        Core Energy ::           -0.456086259369
                                          XC Energy ::           -0.314218638424
                                     Coulomb Energy ::            0.395050607740
                       Total Pseudopotential Energy ::           -1.238480442282
                       Local Pseudopotential Energy ::           -1.238480442282
                    Nonlocal Pseudopotential Energy ::            0.000000000000
                                        Confinement ::            0.110350071812

 Orbital energies  State     L     Occupation   Energy[a.u.]          Energy[eV]

                       1     0          1.000      -0.076313           -2.076591


 Total Electron Density at R=0:                                         0.425028
 Re-scaling the density matrix to get the right number of electrons
                  # Electrons              Trace(P)               Scaling factor
                         1184              1184.000                        1.000


 SCF WAVEFUNCTION OPTIMIZATION

  Step     Update method      Time    Convergence         Total energy    Change
  ------------------------------------------------------------------------------
     1 NoMix/Diag. 0.30E+00    1.3     0.91968844     -3519.4540505010 -3.52E+03
     2 Broy./Diag. 0.30E+00    1.5     0.19249032     -3596.2222609574 -7.68E+01
     3 Broy./Diag. 0.30E+00    1.3     0.20689885     -3558.7247254927  3.75E+01
     4 Broy./Diag. 0.30E+00    1.5     0.11817445     -3535.3419178680  2.34E+01
     5 Broy./Diag. 0.30E+00    1.3     0.02121261     -3519.8606789169  1.55E+01
     6 Broy./Diag. 0.30E+00    1.3     0.01003402     -3518.5080780130  1.35E+00
     7 Broy./Diag. 0.30E+00    1.3     0.00464753     -3518.1342904545  3.74E-01
     8 Broy./Diag. 0.30E+00    1.4     0.00471698     -3518.2158807739 -8.16E-02
     9 Broy./Diag. 0.30E+00    1.3     0.00319624     -3518.3094963701 -9.36E-02
    10 Broy./Diag. 0.30E+00    1.3     0.00084642     -3518.3570962741 -4.76E-02
    11 Broy./Diag. 0.30E+00    1.3     0.00059901     -3518.3556932582  1.40E-03
    12 Broy./Diag. 0.30E+00    1.3     0.00048343     -3518.3372851166  1.84E-02
    13 Broy./Diag. 0.30E+00    1.3     0.00026709     -3518.3209807954  1.63E-02
    14 Broy./Diag. 0.30E+00    1.3     0.00020893     -3518.3155525045  5.43E-03
    15 Broy./Diag. 0.30E+00    1.4     0.00010912     -3518.3092474062  6.31E-03
    16 Broy./Diag. 0.30E+00    1.3     0.00006520     -3518.3072600084  1.99E-03
    17 Broy./Diag. 0.30E+00    1.3     0.00004508     -3518.3043943090  2.87E-03
    18 Broy./Diag. 0.30E+00    1.3     0.00002122     -3518.3035002917  8.94E-04
    19 Broy./Diag. 0.30E+00    1.3     0.00001973     -3518.3034269935  7.33E-05
    20 Broy./Diag. 0.30E+00    1.3     0.00001018     -3518.3036963669 -2.69E-04
    21 Broy./Diag. 0.30E+00    1.3     0.00000651     -3518.3039979630 -3.02E-04
    22 Broy./Diag. 0.30E+00    1.3     0.00000304     -3518.3041383837 -1.40E-04
    23 Broy./Diag. 0.30E+00    1.4     0.00000136     -3518.3040635413  7.48E-05
    24 Broy./Diag. 0.30E+00    1.3     0.00000088     -3518.3039765604  8.70E-05
    25 Broy./Diag. 0.30E+00    1.4     0.00000075     -3518.3039354865  4.11E-05
    26 Broy./Diag. 0.30E+00    1.2     0.00000018     -3518.3039211820  1.43E-05
    27 Broy./Diag. 0.30E+00    1.3     0.00000029     -3518.3039275308 -6.35E-06
    28 Broy./Diag. 0.30E+00    1.4     0.00000020     -3518.3039256135  1.92E-06
    29 Broy./Diag. 0.30E+00    1.3     0.00000013     -3518.3039245077  1.11E-06
    30 Broy./Diag. 0.30E+00    1.2     0.00000009     -3518.3039211443  3.36E-06

  *** SCF run converged in    30 steps ***


  Electronic density on regular grids:      -1183.9999999839        0.0000000161
  Core density on regular grids:             1183.9999998083       -0.0000001917
  Total charge density on r-space grids:       -0.0000001756
  Total charge density g-space grids:          -0.0000001756

  Overlap energy of the core charge distribution:               0.00001347456701
  Self energy of the core charge distribution:              -6148.38221378166963
  Core Hamiltonian energy:                                   1945.31741996074607
  Hartree energy:                                            1240.92778107647018
  Exchange-correlation energy:                               -556.16270169281779
  Electronic entropic energy:                                  -0.00422018189206
  Fermi energy:                                                 0.25354381191086

  Total energy:                                             -3518.30392114426832

 The electron density is written in cube file format to the file:

 dft_wfn-ELECTRON_DENSITY-1_0.cube

 !-----------------------------------------------------------------------------!
                     Mulliken Population Analysis

 #  Atom  Element  Kind  Atomic population                           Net charge
       1     Au       1         10.998833                              0.001167
       2     Au       1         10.998832                              0.001168
       3     Au       1         11.003693                             -0.003693
       4     Au       1         10.997439                              0.002561
       5     Au       1         11.004426                             -0.004426
       6     Au       1         11.004425                             -0.004425
       7     Au       1         11.003687                             -0.003687
       8     Au       1         10.997427                              0.002573
       9     Au       1         10.996611                              0.003389
      10     Au       1         11.000868                             -0.000868
      11     Au       1         10.999094                              0.000906
      12     Au       1         10.999094                              0.000906
      13     Au       1         11.000638                             -0.000638
      14     Au       1         10.996026                              0.003974
      15     Au       1         10.999087                              0.000913
      16     Au       1         10.999088                              0.000912
      17     Au       1         10.995814                              0.004186
      18     Au       1         10.995814                              0.004186
      19     Au       1         11.000744                             -0.000744
      20     Au       1         10.995777                              0.004223
      21     Au       1         11.000480                             -0.000480
      22     Au       1         11.000467                             -0.000467
      23     Au       1         11.000760                             -0.000760
      24     Au       1         10.995732                              0.004268
      25     Au       1         10.994641                              0.005359
      26     Au       1         11.002460                             -0.002460
      27     Au       1         10.993676                              0.006324
      28     Au       1         10.993721                              0.006279
      29     Au       1         11.003971                             -0.003971
      30     Au       1         10.993862                              0.006138
      31     Au       1         10.993697                              0.006303
      32     Au       1         10.993743                              0.006257
      33     Au       1         10.980516                              0.019484
      34     Au       1         10.980461                              0.019539
      35     Au       1         10.985410                              0.014590
      36     Au       1         10.982197                              0.017803
      37     Au       1         10.984460                              0.015540
      38     Au       1         10.984414                              0.015586
      39     Au       1         10.985411                              0.014589
      40     Au       1         10.982171                              0.017829
      41     Au       1         10.984285                              0.015715
      42     Au       1         10.971943                              0.028057
      43     Au       1         10.955245                              0.044755
      44     Au       1         10.955193                              0.044807
      45     Au       1         10.932692                              0.067308
      46     Au       1         10.988364                              0.011636
      47     Au       1         10.955226                              0.044774
      48     Au       1         10.955173                              0.044827
      49     Au       1         11.100650                             -0.100650
      50     Au       1         11.101288                             -0.101288
      51     Au       1         11.099578                             -0.099578
      52     Au       1         11.094747                             -0.094747
      53     Au       1         11.072531                             -0.072531
      54     Au       1         11.072996                             -0.072996
      55     Au       1         11.099697                             -0.099697
      56     Au       1         11.094762                             -0.094762
      57     S        2          5.777282                              0.222718
      58     C        3          4.086946                             -0.086946
      59     H        4          0.924209                              0.075791
      60     H        4          0.924433                              0.075567
      61     C        3          4.018754                             -0.018754
      62     C        3          4.018783                             -0.018783
      63     C        3          4.018829                             -0.018829
      64     C        3          4.018681                             -0.018681
      65     H        4          0.924214                              0.075786
[...]

 !-----------------------------------------------------------------------------!

 !-----------------------------------------------------------------------------!
                           Hirshfeld Charges

  #Atom  Element  Kind  Ref Charge     Population                    Net charge
      1       Au     1      11.000         11.000                         0.000
      2       Au     1      11.000         11.000                         0.000
      3       Au     1      11.000         11.004                        -0.004
      4       Au     1      11.000         10.998                         0.002
      5       Au     1      11.000         11.003                        -0.003
      6       Au     1      11.000         11.003                        -0.003
      7       Au     1      11.000         11.004                        -0.004
      8       Au     1      11.000         10.998                         0.002
      9       Au     1      11.000         10.998                         0.002
     10       Au     1      11.000         10.998                         0.002
     11       Au     1      11.000         11.001                        -0.001
     12       Au     1      11.000         11.002                        -0.002
     13       Au     1      11.000         10.999                         0.001
     14       Au     1      11.000         10.997                         0.003
     15       Au     1      11.000         11.001                        -0.001
     16       Au     1      11.000         11.002                        -0.002
     17       Au     1      11.000         10.999                         0.001
     18       Au     1      11.000         10.999                         0.001
     19       Au     1      11.000         10.998                         0.002
     20       Au     1      11.000         10.999                         0.001
     21       Au     1      11.000         10.998                         0.002
     22       Au     1      11.000         10.998                         0.002
     23       Au     1      11.000         10.998                         0.002
     24       Au     1      11.000         10.999                         0.001
     25       Au     1      11.000         11.000                         0.000
     26       Au     1      11.000         11.001                        -0.001
     27       Au     1      11.000         11.003                        -0.003
     28       Au     1      11.000         11.003                        -0.003
     29       Au     1      11.000         11.001                        -0.001
     30       Au     1      11.000         10.999                         0.001
     31       Au     1      11.000         11.003                        -0.003
     32       Au     1      11.000         11.003                        -0.003
     33       Au     1      11.000         10.997                         0.003
     34       Au     1      11.000         10.997                         0.003
     35       Au     1      11.000         10.999                         0.001
     36       Au     1      11.000         10.996                         0.004
     37       Au     1      11.000         10.999                         0.001
     38       Au     1      11.000         10.999                         0.001
     39       Au     1      11.000         10.999                         0.001
     40       Au     1      11.000         10.996                         0.004
     41       Au     1      11.000         10.978                         0.022
     42       Au     1      11.000         10.988                         0.012
     43       Au     1      11.000         10.993                         0.007
     44       Au     1      11.000         10.993                         0.007
     45       Au     1      11.000         10.997                         0.003
     46       Au     1      11.000         10.977                         0.023
     47       Au     1      11.000         10.993                         0.007
     48       Au     1      11.000         10.993                         0.007
     49       Au     1      11.000         11.031                        -0.031
     50       Au     1      11.000         11.031                        -0.031
     51       Au     1      11.000         10.983                         0.017
     52       Au     1      11.000         11.028                        -0.028
     53       Au     1      11.000         10.987                         0.013
     54       Au     1      11.000         10.986                         0.014
     55       Au     1      11.000         10.984                         0.016
     56       Au     1      11.000         11.028                        -0.028
     57       S      2       6.000          6.015                        -0.015
     58       C      3       4.000          4.023                        -0.023
     59       H      4       1.000          0.952                         0.048
     60       H      4       1.000          0.952                         0.048
     61       C      3       4.000          4.049                        -0.049
     62       C      3       4.000          4.049                        -0.049
     63       C      3       4.000          4.049                        -0.049
     64       C      3       4.000          4.049                        -0.049
     65       H      4       1.000          0.952                         0.048
     66       H      4       1.000          0.952                         0.048
     67       C      3       4.000          4.023                        -0.023
     68       S      2       6.000          6.016                        -0.016
     69       Au     1      11.000         11.031                        -0.031
     70       Au     1      11.000         11.031                        -0.031
     71       Au     1      11.000         10.983                         0.017
     72       Au     1      11.000         11.028                        -0.028
     73       Au     1      11.000         10.985                         0.015
     74       Au     1      11.000         10.986                         0.014
     75       Au     1      11.000         10.983                         0.017
     76       Au     1      11.000         11.027                        -0.027
     77       Au     1      11.000         10.978                         0.022
     78       Au     1      11.000         10.989                         0.011
     79       Au     1      11.000         10.993                         0.007
     80       Au     1      11.000         10.993                         0.007
     81       Au     1      11.000         10.999                         0.001
     82       Au     1      11.000         10.977                         0.023
     83       Au     1      11.000         10.993                         0.007
     84       Au     1      11.000         10.993                         0.007
     85       Au     1      11.000         10.997                         0.003
     86       Au     1      11.000         10.997                         0.003
     87       Au     1      11.000         11.000                         0.000
     88       Au     1      11.000         10.996                         0.004
     89       Au     1      11.000         11.000                         0.000
     90       Au     1      11.000         11.000                         0.000
     91       Au     1      11.000         11.000                         0.000
     92       Au     1      11.000         10.996                         0.004
     93       Au     1      11.000         11.000                         0.000
     94       Au     1      11.000         11.001                        -0.001
     95       Au     1      11.000         11.003                        -0.003
     96       Au     1      11.000         11.003                        -0.003
     97       Au     1      11.000         11.000                        -0.000
     98       Au     1      11.000         10.999                         0.001
     99       Au     1      11.000         11.003                        -0.003
    100       Au     1      11.000         11.003                        -0.003
    101       Au     1      11.000         10.999                         0.001
    102       Au     1      11.000         10.999                         0.001
    103       Au     1      11.000         10.998                         0.002
    104       Au     1      11.000         10.999                         0.001
    105       Au     1      11.000         10.998                         0.002
    106       Au     1      11.000         10.998                         0.002
    107       Au     1      11.000         10.998                         0.002
    108       Au     1      11.000         10.999                         0.001
    109       Au     1      11.000         10.998                         0.002
    110       Au     1      11.000         10.998                         0.002
    111       Au     1      11.000         11.002                        -0.002
    112       Au     1      11.000         11.001                        -0.001
    113       Au     1      11.000         10.999                         0.001
    114       Au     1      11.000         10.997                         0.003
    115       Au     1      11.000         11.001                        -0.001
    116       Au     1      11.000         11.001                        -0.001

  Total Charge                                                           -0.000
 !-----------------------------------------------------------------------------!

 ENERGY| Total FORCE_EVAL ( QS ) energy [a.u.]:            -3518.341950262665250

 Number of electrons:                                                       1184
 Number of occupied orbitals:                                                592
 Number of molecular orbitals:                                               692

 Number of orbital functions:                                               1060
 Number of independent orbital functions:                                   1060

 Extrapolation method: initial_guess

 Atomic guess: The first density matrix is obtained in terms of atomic orbitals
               and electronic configurations assigned to each atomic kind

 Guess for atomic kind: Au

 Electronic structure
    Total number of core electrons                                         68.00
    Total number of valence electrons                                      11.00
    Total number of electrons                                              79.00
    Multiplicity                                                   not specified
    S   [  2.00  2.00  2.00  2.00  2.00] 1.00
    P   [  6.00  6.00  6.00  6.00]
    D   [ 10.00 10.00]10.00
    F   [ 14.00]


 *******************************************************************************
                  Iteration          Convergence                     Energy [au]
 *******************************************************************************
                          1         0.00000                     -33.033218197848

 Energy components [Hartree]           Total Energy ::          -33.033218197848
                                        Band Energy ::           -1.147505983145
                                     Kinetic Energy ::           24.744064437587
                                   Potential Energy ::          -57.777282635435
                                      Virial (-V/T) ::            2.334995642336
                                        Core Energy ::          -60.197309615488
                                          XC Energy ::           -5.116883226844
                                     Coulomb Energy ::           32.280974644483
                       Total Pseudopotential Energy ::          -85.042885173964
                       Local Pseudopotential Energy ::          -66.341694915099
                    Nonlocal Pseudopotential Energy ::          -18.701190258865
                                        Confinement ::            1.015111208892

 Orbital energies  State     L     Occupation   Energy[a.u.]          Energy[eV]

                       1     0          1.000      -0.213792           -5.817572

                       1     2         10.000      -0.093371           -2.540765


 Total Electron Density at R=0:                                         0.000035

 Guess for atomic kind: S

 Electronic structure
    Total number of core electrons                                         10.00
    Total number of valence electrons                                       6.00
    Total number of electrons                                              16.00
    Multiplicity                                                   not specified
    S   [  2.00  2.00] 2.00
    P   [  6.00] 4.00


 *******************************************************************************
                  Iteration          Convergence                     Energy [au]
 *******************************************************************************
                          1        0.660537E-01                  -9.999037742061
                          2        0.355079E-01                  -9.999866133925
                          3        0.643643E-04                 -10.000216348790
                          4        0.796885E-07                 -10.000216349869

 Energy components [Hartree]           Total Energy ::          -10.000216349869
                                        Band Energy ::           -2.121494693893
                                     Kinetic Energy ::            3.789396533726
                                   Potential Energy ::          -13.789612883596
                                      Virial (-V/T) ::            3.638999709021
                                        Core Energy ::          -16.443520246889
                                          XC Energy ::           -2.069152856162
                                     Coulomb Energy ::            8.512456753182
                       Total Pseudopotential Energy ::          -20.288997453216
                       Local Pseudopotential Energy ::          -22.511640900540
                    Nonlocal Pseudopotential Energy ::            2.222643447324
                                        Confinement ::            0.560806726004

 Orbital energies  State     L     Occupation   Energy[a.u.]          Energy[eV]

                       1     0          2.000      -0.602923          -16.406376

                       1     1          4.000      -0.228912           -6.229013


 Total Electron Density at R=0:                                         0.000007

 Guess for atomic kind: C

 Electronic structure
    Total number of core electrons                                          2.00
    Total number of valence electrons                                       4.00
    Total number of electrons                                               6.00
    Multiplicity                                                   not specified
    S   [  2.00] 2.00
    P      2.00


 *******************************************************************************
                  Iteration          Convergence                     Energy [au]
 *******************************************************************************
                          1        0.186766E-01                  -5.268668754005
                          2        0.653829E-02                  -5.268804464977
                          3        0.876072E-04                  -5.268823127995
                          4        0.591072E-08                  -5.268823131348

 Energy components [Hartree]           Total Energy ::           -5.268823131348
                                        Band Energy ::           -1.059831606115
                                     Kinetic Energy ::            3.570408314829
                                   Potential Energy ::           -8.839231446178
                                      Virial (-V/T) ::            2.475692040449
                                        Core Energy ::           -8.468185581767
                                          XC Energy ::           -1.456932885419
                                     Coulomb Energy ::            4.656295335838
                       Total Pseudopotential Energy ::          -12.068029384961
                       Local Pseudopotential Energy ::          -12.916317339773
                    Nonlocal Pseudopotential Energy ::            0.848287954812
                                        Confinement ::            0.294354883653

 Orbital energies  State     L     Occupation   Energy[a.u.]          Energy[eV]

                       1     0          2.000      -0.408420          -11.113669

                       1     1          2.000      -0.121496           -3.306073


 Total Electron Density at R=0:                                         0.001169

 Guess for atomic kind: H

 Electronic structure
    Total number of core electrons                                          0.00
    Total number of valence electrons                                       1.00
    Total number of electrons                                               1.00
    Multiplicity                                                   not specified
    S      1.00


 *******************************************************************************
                  Iteration          Convergence                     Energy [au]
 *******************************************************************************
                          1        0.250941E-02                  -0.375252439250
                          2        0.570686E-04                  -0.375254289096
                          3        0.832215E-09                  -0.375254290053

 Energy components [Hartree]           Total Energy ::           -0.375254290053
                                        Band Energy ::           -0.076313317586
                                     Kinetic Energy ::            0.771359175731
                                   Potential Energy ::           -1.146613465784
                                      Virial (-V/T) ::            1.486484509239
                                        Core Energy ::           -0.456086259369
                                          XC Energy ::           -0.314218638424
                                     Coulomb Energy ::            0.395050607740
                       Total Pseudopotential Energy ::           -1.238480442282
                       Local Pseudopotential Energy ::           -1.238480442282
                    Nonlocal Pseudopotential Energy ::            0.000000000000
                                        Confinement ::            0.110350071812

 Orbital energies  State     L     Occupation   Energy[a.u.]          Energy[eV]

                       1     0          1.000      -0.076313           -2.076591


 Total Electron Density at R=0:                                         0.425028
 Re-scaling the density matrix to get the right number of electrons
                  # Electrons              Trace(P)               Scaling factor
                         1184              1184.000                        1.000


 SCF WAVEFUNCTION OPTIMIZATION

  Step     Update method      Time    Convergence         Total energy    Change
  ------------------------------------------------------------------------------
     1 Broy./Diag. 0.30E+00    6.8     0.91831754     -3519.3162908989 -3.52E+03
     2 Broy./Diag. 0.30E+00   13.2     0.22526975     -3596.3113012990 -7.70E+01
     3 Broy./Diag. 0.30E+00   20.5     0.19036353     -3559.7601836467  3.66E+01
     4 Broy./Diag. 0.30E+00   12.2     0.12663147     -3535.9747447123  2.38E+01
