ATOMS
H             0.00000000      0.00000000     -0.00998254             0.00000476      0.70580243     -0.04292939
H             0.00000000      0.00000000      0.73998166             0.00000476      0.70580243     -0.04292939
