 DBCSR| CPU Multiplication driver                                           XSMM
 DBCSR| Multrec recursion limit                                              512
 DBCSR| Multiplication stack size                                           1000
 DBCSR| Maximum elements for images                                    UNLIMITED
 DBCSR| Multiplicative factor virtual images                                   1
 DBCSR| Use multiplication densification                                       T
 DBCSR| Multiplication size stacks                                             3
 DBCSR| Use memory pool for CPU allocation                                     F
 DBCSR| Number of 3D layers                                               SINGLE
 DBCSR| Use MPI memory allocation                                              F
 DBCSR| Use RMA algorithm                                                      F
 DBCSR| Use Communication thread                                               T
 DBCSR| Communication thread load                                             87
 DBCSR| MPI: My node id                                                        0
 DBCSR| MPI: Number of nodes                                                 240
 DBCSR| OMP: Current number of threads                                         1
 DBCSR| OMP: Max number of threads                                             1
 DBCSR| Split modifier for TAS multiplication algorithm                  1.0E+00


  **** **** ******  **  PROGRAM STARTED AT               2023-03-23 19:54:53.058
 ***** ** ***  *** **   PROGRAM STARTED ON                 cn1048.scarf.rl.ac.uk
 **    ****   ******    PROGRAM STARTED BY                             scarf1157
 ***** **    ** ** **   PROGRAM PROCESS ID                                 25186
  **** **  *******  **  PROGRAM STARTED IN /work4/scd/scarf1157/work/testing/cp2
                                           k-smeagol/bdt/cp2k/hollow-site/transp
                                           ort-cp2k/5-4/geometry-ordered/3x3-4/s
                                           z/bulk_layers-4/transmission/exp/capa
                                           citor/sergey-equal/auto/kpoints-20/V-
                                           1_kpoints_bulk-4-4-20_em-4-4-1_hlb-au
                                           to_scf-1e-8

 CP2K| version string:                 CP2K version 2022.1 (Development Version)
 CP2K| source code revision number:                                  git:e136ce5
 CP2K| cp2kflags: omp fftw3 libxc parallel mpi3 scalapack xsmm spglib           
 CP2K| is freely available from                            https://www.cp2k.org/
 CP2K| Program compiled at                          Thu  9 Mar 17:17:16 GMT 2023
 CP2K| Program compiled on                                 cn1108.scarf.rl.ac.uk
 CP2K| Program compiled for                                                local
 CP2K| Data directory path    /home/vol07/scarf1157/code/smeagol/cp2k-smeagol/sc
 CP2K| Input file name                                                  3_0V.inp

 GLOBAL| Force Environment number                                              1
 GLOBAL| Basis set file name                                        BASIS_MOLOPT
 GLOBAL| Potential file name                                      GTH_POTENTIALS
 GLOBAL| MM Potential file name                                     MM_POTENTIAL
 GLOBAL| Coordinate file name                                             em.xyz
 GLOBAL| Method name                                                        CP2K
 GLOBAL| Project name                                                         0V
 GLOBAL| Run type                                                         ENERGY
 GLOBAL| FFT library                                                       FFTW3
 GLOBAL| Diagonalization library                                       ScaLAPACK
 GLOBAL| Orthonormality check for eigenvectors                          DISABLED
 GLOBAL| Matrix multiplication library                                 ScaLAPACK
 GLOBAL| All-to-all communication in single precision                          F
 GLOBAL| FFTs using library dependent lengths                                  T
 GLOBAL| Grid backend                                                       AUTO
 GLOBAL| Global print level                                               MEDIUM
 GLOBAL| MPI I/O enabled                                                       T
 GLOBAL| Total number of message passing processes                           240
 GLOBAL| Number of threads for this process                                    1
 GLOBAL| This output is from process                                           0
 GLOBAL| Stack size for threads created by OpenMP (OMP_STACKSIZE)        default
 GLOBAL| CPU model name                         AMD EPYC 7502P 32-Core Processor
 GLOBAL| CPUID                                                              1002

 MEMORY| system memory details [Kb]
 MEMORY|                        rank 0           min           max       average
 MEMORY| MemTotal            263896984     263896980     263897004     263896985
 MEMORY| MemFree             216325036      85748236     231536020     181447984
 MEMORY| Buffers                  2568          2560          3120          2634
 MEMORY| Cached               31727268      17132996     161926632      66495417
 MEMORY| Slab                  1231676       1005084       1668636       1340891
 MEMORY| SReclaimable           664860        518552       1098120        791722
 MEMORY| MemLikelyFree       248719732     248225748     249190136     248737758


 *** Fundamental physical constants (SI units) ***

 *** Literature: B. J. Mohr and B. N. Taylor,
 ***             CODATA recommended values of the fundamental physical
 ***             constants: 2006, Web Version 5.1
 ***             http://physics.nist.gov/constants

 Speed of light in vacuum [m/s]                             2.99792458000000E+08
 Magnetic constant or permeability of vacuum [N/A**2]       1.25663706143592E-06
 Electric constant or permittivity of vacuum [F/m]          8.85418781762039E-12
 Planck constant (h) [J*s]                                  6.62606896000000E-34
 Planck constant (h-bar) [J*s]                              1.05457162825177E-34
 Elementary charge [C]                                      1.60217648700000E-19
 Electron mass [kg]                                         9.10938215000000E-31
 Electron g factor [ ]                                     -2.00231930436220E+00
 Proton mass [kg]                                           1.67262163700000E-27
 Fine-structure constant                                    7.29735253760000E-03
 Rydberg constant [1/m]                                     1.09737315685270E+07
 Avogadro constant [1/mol]                                  6.02214179000000E+23
 Boltzmann constant [J/K]                                   1.38065040000000E-23
 Atomic mass unit [kg]                                      1.66053878200000E-27
 Bohr radius [m]                                            5.29177208590000E-11

 *** Conversion factors ***

 [u] -> [a.u.]                                              1.82288848426455E+03
 [Angstrom] -> [Bohr] = [a.u.]                              1.88972613288564E+00
 [a.u.] = [Bohr] -> [Angstrom]                              5.29177208590000E-01
 [a.u.] -> [s]                                              2.41888432650478E-17
 [a.u.] -> [fs]                                             2.41888432650478E-02
 [a.u.] -> [J]                                              4.35974393937059E-18
 [a.u.] -> [N]                                              8.23872205491840E-08
 [a.u.] -> [K]                                              3.15774647902944E+05
 [a.u.] -> [kJ/mol]                                         2.62549961709828E+03
 [a.u.] -> [kcal/mol]                                       6.27509468713739E+02
 [a.u.] -> [Pa]                                             2.94210107994716E+13
 [a.u.] -> [bar]                                            2.94210107994716E+08
 [a.u.] -> [atm]                                            2.90362800883016E+08
 [a.u.] -> [eV]                                             2.72113838565563E+01
 [a.u.] -> [Hz]                                             6.57968392072181E+15
 [a.u.] -> [1/cm] (wave numbers)                            2.19474631370540E+05
 [a.u./Bohr**2] -> [1/cm]                                   5.14048714338585E+03
 

 CELL_TOP| Volume [angstrom^3]:                                      2357.480286
 CELL_TOP| Vector a [angstrom     8.336     0.000     0.000   |a| =     8.336000
 CELL_TOP| Vector b [angstrom     0.000     8.336     0.000   |b| =     8.336000
 CELL_TOP| Vector c [angstrom     0.000     0.000    33.926   |c| =    33.926000
 CELL_TOP| Angle (b,c), alpha [degree]:                                90.000000
 CELL_TOP| Angle (a,c), beta  [degree]:                                90.000000
 CELL_TOP| Angle (a,b), gamma [degree]:                                90.000000
 CELL_TOP| Numerically orthorhombic:                                         YES
 CELL_TOP| Periodicity                                                       XYZ

 GENERATE|  Preliminary Number of Bonds generated:                             0
 GENERATE|  Achieved consistency in connectivity generation.

 CELL| Volume [angstrom^3]:                                          2357.480286
 CELL| Vector a [angstrom]:       8.336     0.000     0.000   |a| =     8.336000
 CELL| Vector b [angstrom]:       0.000     8.336     0.000   |b| =     8.336000
 CELL| Vector c [angstrom]:       0.000     0.000    33.926   |c| =    33.926000
 CELL| Angle (b,c), alpha [degree]:                                    90.000000
 CELL| Angle (a,c), beta  [degree]:                                    90.000000
 CELL| Angle (a,b), gamma [degree]:                                    90.000000
 CELL| Numerically orthorhombic:                                             YES
 CELL| Periodicity                                                           XYZ

 CELL_REF| Volume [angstrom^3]:                                      2357.480286
 CELL_REF| Vector a [angstrom     8.336     0.000     0.000   |a| =     8.336000
 CELL_REF| Vector b [angstrom     0.000     8.336     0.000   |b| =     8.336000
 CELL_REF| Vector c [angstrom     0.000     0.000    33.926   |c| =    33.926000
 CELL_REF| Angle (b,c), alpha [degree]:                                90.000000
 CELL_REF| Angle (a,c), beta  [degree]:                                90.000000
 CELL_REF| Angle (a,b), gamma [degree]:                                90.000000
 CELL_REF| Numerically orthorhombic:                                         YES
 CELL_REF| Periodicity                                                       XYZ

 *******************************************************************************
                                    Kpoints
 *******************************************************************************
 BRILLOUIN| K-point scheme                                        Monkhorst-Pack
 BRILLOUIN| K-Point grid                                             4    4    1
 BRILLOUIN| Accuracy in Symmetry determination                      0.100000E-07
 BRILLOUIN| K-Point point group symmetrization                               OFF
 BRILLOUIN| Wavefunction type                                            COMPLEX
 BRILLOUIN| Use full k-point grid     
 BRILLOUIN| List of Kpoints [2 Pi/Bohr]                                       16
 BRILLOUIN| Number           Weight            X              Y              Z
 BRILLOUIN|     1           0.06250       -0.37500       -0.37500        0.00000
 BRILLOUIN|     2           0.06250       -0.37500       -0.12500        0.00000
 BRILLOUIN|     3           0.06250       -0.37500        0.12500        0.00000
 BRILLOUIN|     4           0.06250       -0.37500        0.37500        0.00000
 BRILLOUIN|     5           0.06250       -0.12500       -0.37500        0.00000
 BRILLOUIN|     6           0.06250       -0.12500       -0.12500        0.00000
 BRILLOUIN|     7           0.06250       -0.12500        0.12500        0.00000
 BRILLOUIN|     8           0.06250       -0.12500        0.37500        0.00000
 BRILLOUIN|     9           0.06250        0.12500       -0.37500        0.00000
 BRILLOUIN|    10           0.06250        0.12500       -0.12500        0.00000
 BRILLOUIN|    11           0.06250        0.12500        0.12500        0.00000
 BRILLOUIN|    12           0.06250        0.12500        0.37500        0.00000
 BRILLOUIN|    13           0.06250        0.37500       -0.37500        0.00000
 BRILLOUIN|    14           0.06250        0.37500       -0.12500        0.00000
 BRILLOUIN|    15           0.06250        0.37500        0.12500        0.00000
 BRILLOUIN|    16           0.06250        0.37500        0.37500        0.00000
 *******************************************************************************

 *******************************************************************************
 *******************************************************************************
 **                                                                           **
 **     #####                         ##              ##                      **
 **    ##   ##            ##          ##              ##                      **
 **   ##     ##                       ##            ######                    **
 **   ##     ##  ##   ##  ##   #####  ##  ##   ####   ##    #####    #####    **
 **   ##     ##  ##   ##  ##  ##      ## ##   ##      ##   ##   ##  ##   ##   **
 **   ##  ## ##  ##   ##  ##  ##      ####     ###    ##   ######   ######    **
 **    ##  ###   ##   ##  ##  ##      ## ##      ##   ##   ##       ##        **
 **     #######   #####   ##   #####  ##  ##  ####    ##    #####   ##        **
 **           ##                                                    ##        **
 **                                                                           **
 **                                                ... make the atoms dance   **
 **                                                                           **
 **            Copyright (C) by CP2K developers group (2000-2022)             **
 **                      J. Chem. Phys. 152, 194103 (2020)                    **
 **                                                                           **
 *******************************************************************************

 DFT| Spin restricted Kohn-Sham (RKS) calculation                            RKS
 DFT| Multiplicity                                                             1
 DFT| Number of spin states                                                    1
 DFT| Charge                                                                   0
 DFT| Self-interaction correction (SIC)                                       NO
 DFT| Cutoffs: density                                              1.000000E-10
 DFT|          gradient                                             1.000000E-10
 DFT|          tau                                                  1.000000E-10
 DFT|          cutoff_smoothing_range                               0.000000E+00
 DFT| XC density smoothing                                                  NONE
 DFT| XC derivatives                                                          PW

 FUNCTIONAL| PADE:
 FUNCTIONAL| S. Goedecker, M. Teter and J. Hutter, Phys. Rev. B 54, 1703 (1996) 


 QS| Method:                                                                 GPW
 QS| Density plane wave grid type                        NON-SPHERICAL FULLSPACE
 QS| Number of grid levels:                                                    4
 QS| Density cutoff [a.u.]:                                                200.0
 QS| Multi grid cutoff [a.u.]: 1) grid level                               200.0
 QS|                           2) grid level                                66.7
 QS|                           3) grid level                                22.2
 QS|                           4) grid level                                 7.4
 QS| Grid level progression factor:                                          3.0
 QS| Relative density cutoff [a.u.]:                                        20.0
 QS| Interaction thresholds: eps_pgf_orb:                                1.0E-05
 QS|                         eps_filter_matrix:                          0.0E+00
 QS|                         eps_core_charge:                            1.0E-12
 QS|                         eps_rho_gspace:                             1.0E-10
 QS|                         eps_rho_rspace:                             1.0E-10
 QS|                         eps_gvg_rspace:                             1.0E-05
 QS|                         eps_ppl:                                    1.0E-02
 QS|                         eps_ppnl:                                   1.0E-07


 ATOMIC KIND INFORMATION

  1. Atomic kind: Au                                    Number of atoms:      96

     Orbital Basis Set                                         SZV-MOLOPT-SR-GTH

       Number of orbital shell sets:                                           1
       Number of orbital shells:                                               3
       Number of primitive Cartesian functions:                                5
       Number of Cartesian basis functions:                                   10
       Number of spherical basis functions:                                    9
       Norm type:                                                              2

       Normalised Cartesian orbitals:

                        Set   Shell   Orbital            Exponent    Coefficient

                          1       1    2s                2.950008       0.074626
                                                         1.563057      -0.007898
                                                         0.666664      -0.297688
                                                         0.251083       0.136809
                                                         0.081714       0.088198

                          1       2    3px               2.950008       0.148824
                                                         1.563057       0.025430
                                                         0.666664      -0.123003
                                                         0.251083       0.033648
                                                         0.081714       0.059008
                          1       2    3py               2.950008       0.148824
                                                         1.563057       0.025430
                                                         0.666664      -0.123003
                                                         0.251083       0.033648
                                                         0.081714       0.059008
                          1       2    3pz               2.950008       0.148824
                                                         1.563057       0.025430
                                                         0.666664      -0.123003
                                                         0.251083       0.033648
                                                         0.081714       0.059008

                          1       3    4dx2              2.950008      -0.139595
                                                         1.563057       1.319655
                                                         0.666664       0.377081
                                                         0.251083       0.046872
                                                         0.081714       0.001393
                          1       3    4dxy              2.950008      -0.241786
                                                         1.563057       2.285709
                                                         0.666664       0.653124
                                                         0.251083       0.081185
                                                         0.081714       0.002412
                          1       3    4dxz              2.950008      -0.241786
                                                         1.563057       2.285709
                                                         0.666664       0.653124
                                                         0.251083       0.081185
                                                         0.081714       0.002412
                          1       3    4dy2              2.950008      -0.139595
                                                         1.563057       1.319655
                                                         0.666664       0.377081
                                                         0.251083       0.046872
                                                         0.081714       0.001393
                          1       3    4dyz              2.950008      -0.241786
                                                         1.563057       2.285709
                                                         0.666664       0.653124
                                                         0.251083       0.081185
                                                         0.081714       0.002412
                          1       3    4dz2              2.950008      -0.139595
                                                         1.563057       1.319655
                                                         0.666664       0.377081
                                                         0.251083       0.046872
                                                         0.081714       0.001393

       Atomic covalent radius [Angstrom]:                                  1.340

       Atomic van der Waals radius [Angstrom]:                             1.660

     GTH Potential information for                                  GTH-PADE-q11

       Description:                       Goedecker-Teter-Hutter pseudopotential
                                           Goedecker et al., PRB 54, 1703 (1996)
                                          Hartwigsen et al., PRB 58, 3641 (1998)
                                                      Krack, TCA 114, 145 (2005)

       Gaussian exponent of the core charge distribution:               1.436369
       Electronic configuration (s p d ...):                           1   0  10

       Parameters of the local part of the GTH pseudopotential:

                          rloc        C1          C2          C3          C4
                        0.590000   11.604428

       Parameters of the non-local part of the GTH pseudopotential:

                   l      r(l)      h(i,j,l)

                   0    0.521180    2.538614   -1.046137
                                   -1.046137    2.701113
                   1    0.630613    0.394853   -0.869592
                                   -0.869592    2.057831
                   2    0.440706   -4.719070    0.727771
                                    0.727771   -1.650429


 MOLECULE KIND INFORMATION


 All atoms are their own molecule, skipping detailed information


 TOTAL NUMBERS AND MAXIMUM NUMBERS

  Total number of            - Atomic kinds:                                   1
                             - Atoms:                                         96
                             - Shell sets:                                    96
                             - Shells:                                       288
                             - Primitive Cartesian functions:                480
                             - Cartesian basis functions:                    960
                             - Spherical basis functions:                    864

  Maximum angular momentum of- Orbital basis functions:                        2
                             - Local part of the GTH pseudopotential:          0
                             - Non-local part of the GTH pseudopotential:      4


 MODULE QUICKSTEP: ATOMIC COORDINATES IN ANGSTROM

   Atom Kind Element         X             Y             Z       Z(eff)     Mass
      1    1 Au   79      0.000000      0.000000      0.000000  11.0000 196.9666
      2    1 Au   79      0.000000      4.168000      0.000000  11.0000 196.9666
      3    1 Au   79      2.084000      2.084000      0.000000  11.0000 196.9666
      4    1 Au   79      2.084000      6.252000      0.000000  11.0000 196.9666
      5    1 Au   79      4.168000      0.000000      0.000000  11.0000 196.9666
      6    1 Au   79      4.168000      4.168000      0.000000  11.0000 196.9666
      7    1 Au   79      6.252000      2.084000      0.000000  11.0000 196.9666
      8    1 Au   79      6.252000      6.252000      0.000000  11.0000 196.9666
      9    1 Au   79      0.000000      2.084000      2.084000  11.0000 196.9666
     10    1 Au   79      0.000000      6.252000      2.084000  11.0000 196.9666
     11    1 Au   79      2.084000      0.000000      2.084000  11.0000 196.9666
     12    1 Au   79      2.084000      4.168000      2.084000  11.0000 196.9666
     13    1 Au   79      4.168000      2.084000      2.084000  11.0000 196.9666
     14    1 Au   79      4.168000      6.252000      2.084000  11.0000 196.9666
     15    1 Au   79      6.252000      0.000000      2.084000  11.0000 196.9666
     16    1 Au   79      6.252000      4.168000      2.084000  11.0000 196.9666
     17    1 Au   79      0.000000      0.000000      4.168000  11.0000 196.9666
     18    1 Au   79      0.000000      4.168000      4.168000  11.0000 196.9666
     19    1 Au   79      2.084000      2.084000      4.168000  11.0000 196.9666
     20    1 Au   79      2.084000      6.252000      4.168000  11.0000 196.9666
     21    1 Au   79      4.168000      0.000000      4.168000  11.0000 196.9666
     22    1 Au   79      4.168000      4.168000      4.168000  11.0000 196.9666
     23    1 Au   79      6.252000      2.084000      4.168000  11.0000 196.9666
     24    1 Au   79      6.252000      6.252000      4.168000  11.0000 196.9666
     25    1 Au   79      0.000000      2.084000      6.252000  11.0000 196.9666
     26    1 Au   79      0.000000      6.252000      6.252000  11.0000 196.9666
     27    1 Au   79      2.084000      0.000000      6.252000  11.0000 196.9666
     28    1 Au   79      2.084000      4.168000      6.252000  11.0000 196.9666
     29    1 Au   79      4.168000      2.084000      6.252000  11.0000 196.9666
     30    1 Au   79      4.168000      6.252000      6.252000  11.0000 196.9666
     31    1 Au   79      6.252000      0.000000      6.252000  11.0000 196.9666
     32    1 Au   79      6.252000      4.168000      6.252000  11.0000 196.9666
     33    1 Au   79      0.000000      0.000000      8.336000  11.0000 196.9666
     34    1 Au   79      0.000000      4.168000      8.336000  11.0000 196.9666
     35    1 Au   79      2.084000      2.084000      8.336000  11.0000 196.9666
     36    1 Au   79      2.084000      6.252000      8.336000  11.0000 196.9666
     37    1 Au   79      4.168000      0.000000      8.336000  11.0000 196.9666
     38    1 Au   79      4.168000      4.168000      8.336000  11.0000 196.9666
     39    1 Au   79      6.252000      2.084000      8.336000  11.0000 196.9666
     40    1 Au   79      6.252000      6.252000      8.336000  11.0000 196.9666
     41    1 Au   79      0.000000      2.084000     10.420000  11.0000 196.9666
     42    1 Au   79      0.000000      6.252000     10.420000  11.0000 196.9666
     43    1 Au   79      2.084000      0.000000     10.420000  11.0000 196.9666
     44    1 Au   79      2.084000      4.168000     10.420000  11.0000 196.9666
     45    1 Au   79      4.168000      2.084000     10.420000  11.0000 196.9666
     46    1 Au   79      4.168000      6.252000     10.420000  11.0000 196.9666
     47    1 Au   79      6.252000      0.000000     10.420000  11.0000 196.9666
     48    1 Au   79      6.252000      4.168000     10.420000  11.0000 196.9666
     49    1 Au   79      0.000000      0.000000     21.422000  11.0000 196.9666
     50    1 Au   79      0.000000      4.168000     21.422000  11.0000 196.9666
     51    1 Au   79      2.084000      2.084000     21.422000  11.0000 196.9666
     52    1 Au   79      2.084000      6.252000     21.422000  11.0000 196.9666
     53    1 Au   79      4.168000      0.000000     21.422000  11.0000 196.9666
     54    1 Au   79      4.168000      4.168000     21.422000  11.0000 196.9666
     55    1 Au   79      6.252000      2.084000     21.422000  11.0000 196.9666
     56    1 Au   79      6.252000      6.252000     21.422000  11.0000 196.9666
     57    1 Au   79      0.000000      2.084000     23.506000  11.0000 196.9666
     58    1 Au   79      0.000000      6.252000     23.506000  11.0000 196.9666
     59    1 Au   79      2.084000      0.000000     23.506000  11.0000 196.9666
     60    1 Au   79      2.084000      4.168000     23.506000  11.0000 196.9666
     61    1 Au   79      4.168000      2.084000     23.506000  11.0000 196.9666
     62    1 Au   79      4.168000      6.252000     23.506000  11.0000 196.9666
     63    1 Au   79      6.252000      0.000000     23.506000  11.0000 196.9666
     64    1 Au   79      6.252000      4.168000     23.506000  11.0000 196.9666
     65    1 Au   79      0.000000      0.000000     25.590000  11.0000 196.9666
     66    1 Au   79      0.000000      4.168000     25.590000  11.0000 196.9666
     67    1 Au   79      2.084000      2.084000     25.590000  11.0000 196.9666
     68    1 Au   79      2.084000      6.252000     25.590000  11.0000 196.9666
     69    1 Au   79      4.168000      0.000000     25.590000  11.0000 196.9666
     70    1 Au   79      4.168000      4.168000     25.590000  11.0000 196.9666
     71    1 Au   79      6.252000      2.084000     25.590000  11.0000 196.9666
     72    1 Au   79      6.252000      6.252000     25.590000  11.0000 196.9666
     73    1 Au   79      0.000000      2.084000     27.674000  11.0000 196.9666
     74    1 Au   79      0.000000      6.252000     27.674000  11.0000 196.9666
     75    1 Au   79      2.084000      0.000000     27.674000  11.0000 196.9666
     76    1 Au   79      2.084000      4.168000     27.674000  11.0000 196.9666
     77    1 Au   79      4.168000      2.084000     27.674000  11.0000 196.9666
     78    1 Au   79      4.168000      6.252000     27.674000  11.0000 196.9666
     79    1 Au   79      6.252000      0.000000     27.674000  11.0000 196.9666
     80    1 Au   79      6.252000      4.168000     27.674000  11.0000 196.9666
     81    1 Au   79      0.000000      0.000000     29.758000  11.0000 196.9666
     82    1 Au   79      0.000000      4.168000     29.758000  11.0000 196.9666
     83    1 Au   79      2.084000      2.084000     29.758000  11.0000 196.9666
     84    1 Au   79      2.084000      6.252000     29.758000  11.0000 196.9666
     85    1 Au   79      4.168000      0.000000     29.758000  11.0000 196.9666
     86    1 Au   79      4.168000      4.168000     29.758000  11.0000 196.9666
     87    1 Au   79      6.252000      2.084000     29.758000  11.0000 196.9666
     88    1 Au   79      6.252000      6.252000     29.758000  11.0000 196.9666
     89    1 Au   79      0.000000      2.084000     31.842000  11.0000 196.9666
     90    1 Au   79      0.000000      6.252000     31.842000  11.0000 196.9666
     91    1 Au   79      2.084000      0.000000     31.842000  11.0000 196.9666
     92    1 Au   79      2.084000      4.168000     31.842000  11.0000 196.9666
     93    1 Au   79      4.168000      2.084000     31.842000  11.0000 196.9666
     94    1 Au   79      4.168000      6.252000     31.842000  11.0000 196.9666
     95    1 Au   79      6.252000      0.000000     31.842000  11.0000 196.9666
     96    1 Au   79      6.252000      4.168000     31.842000  11.0000 196.9666



 SCF PARAMETERS         Density guess:                                   RESTART
                        --------------------------------------------------------
                        max_scf:                                             500
                        max_scf_history:                                       0
                        max_diis:                                              4
                        --------------------------------------------------------
                        eps_scf:                                        1.00E-08
                        eps_scf_history:                                0.00E+00
                        eps_diis:                                       1.00E-01
                        eps_eigval:                                     1.00E-05
                        --------------------------------------------------------
                        level_shift [a.u.]:                             0.000000
                        added MOs                                       100    0
                        --------------------------------------------------------
                        Mixing method:                            BROYDEN_MIXING
                                                charge density mixing in g-space
                        --------------------------------------------------------
                        Smear method:                                FERMI_DIRAC
                        Electronic temperature [K]:                        293.0
                        Electronic temperature [a.u.]:                  9.28E-04
                        Accuracy threshold:                             1.00E-10
                        --------------------------------------------------------
                        No outer SCF

 PW_GRID| Information for grid number                                          1
 PW_GRID| Grid distributed over                                   240 processors
 PW_GRID| Real space group dimensions                                    12   20
 PW_GRID| the grid is blocked:                                               YES
 PW_GRID| Cutoff [a.u.]                                                    200.0
 PW_GRID| spherical cutoff:                                                   NO
 PW_GRID|   Bounds   1            -52      52                Points:         105
 PW_GRID|   Bounds   2            -52      52                Points:         105
 PW_GRID|   Bounds   3           -210     209                Points:         420
 PW_GRID| Volume element (a.u.^3)  0.3436E-02     Volume (a.u.^3)     15909.0657
 PW_GRID| Grid span                                                    FULLSPACE
 PW_GRID|   Distribution                         Average         Max         Min
 PW_GRID|   G-Vectors                            19293.8       19845       17640
 PW_GRID|   G-Rays                                 183.8         189         168
 PW_GRID|   Real Space Points                    19293.8       19845       17640

 PW_GRID| Information for grid number                                          2
 PW_GRID| Number of the reference grid                                         1
 PW_GRID| Grid distributed over                                   240 processors
 PW_GRID| Real space group dimensions                                    12   20
 PW_GRID| the grid is blocked:                                                NO
 PW_GRID| Cutoff [a.u.]                                                     66.7
 PW_GRID| spherical cutoff:                                                   NO
 PW_GRID|   Bounds   1            -30      29                Points:          60
 PW_GRID|   Bounds   2            -30      29                Points:          60
 PW_GRID|   Bounds   3           -120     119                Points:         240
 PW_GRID| Volume element (a.u.^3)  0.1841E-01     Volume (a.u.^3)     15909.0657
 PW_GRID| Grid span                                                    FULLSPACE
 PW_GRID|   Distribution                         Average         Max         Min
 PW_GRID|   G-Vectors                             3600.0       11340           0
 PW_GRID|   G-Rays                                  60.0         189           0
 PW_GRID|   Real Space Points                     3600.0        3600        3600

 PW_GRID| Information for grid number                                          3
 PW_GRID| Number of the reference grid                                         1
 PW_GRID| Grid distributed over                                   240 processors
 PW_GRID| Real space group dimensions                                    12   20
 PW_GRID| the grid is blocked:                                                NO
 PW_GRID| Cutoff [a.u.]                                                     22.2
 PW_GRID| spherical cutoff:                                                   NO
 PW_GRID|   Bounds   1            -16      16                Points:          33
 PW_GRID|   Bounds   2            -16      16                Points:          33
 PW_GRID|   Bounds   3            -70      69                Points:         140
 PW_GRID| Volume element (a.u.^3)  0.1043         Volume (a.u.^3)     15909.0657
 PW_GRID| Grid span                                                    FULLSPACE
 PW_GRID|   Distribution                         Average         Max         Min
 PW_GRID|   G-Vectors                              635.2        6237           0
 PW_GRID|   G-Rays                                  19.2         189           0
 PW_GRID|   Real Space Points                      635.2         840         280

 PW_GRID| Information for grid number                                          4
 PW_GRID| Number of the reference grid                                         1
 PW_GRID| Grid distributed over                                   240 processors
 PW_GRID| Real space group dimensions                                    12   20
 PW_GRID| the grid is blocked:                                                NO
 PW_GRID| Cutoff [a.u.]                                                      7.4
 PW_GRID| spherical cutoff:                                                   NO
 PW_GRID|   Bounds   1            -10       9                Points:          20
 PW_GRID|   Bounds   2            -10       9                Points:          20
 PW_GRID|   Bounds   3            -40      39                Points:          80
 PW_GRID| Volume element (a.u.^3)  0.4972         Volume (a.u.^3)     15909.0657
 PW_GRID| Grid span                                                    FULLSPACE
 PW_GRID|   Distribution                         Average         Max         Min
 PW_GRID|   G-Vectors                              133.3        3780           0
 PW_GRID|   G-Rays                                   6.7         189           0
 PW_GRID|   Real Space Points                      133.3         160          80

 POISSON| Solver                                                        PERIODIC
 POISSON| Periodicity                                                        XYZ

 RS_GRID| Information for grid number                                          1
 RS_GRID|   Bounds   1            -52      52                Points:         105
 RS_GRID|   Bounds   2            -52      52                Points:         105
 RS_GRID|   Bounds   3           -210     209                Points:         420
 RS_GRID| Real space distribution over                                  8 groups
 RS_GRID| Real space distribution along direction                              2
 RS_GRID| Border size                                                         30
 RS_GRID| Real space distribution over                                 30 groups
 RS_GRID| Real space distribution along direction                              3
 RS_GRID| Border size                                                         30
 RS_GRID|   Distribution                         Average         Max         Min
 RS_GRID|   Planes                                  73.1          74          73
 RS_GRID|   Distribution                         Average         Max         Min
 RS_GRID|   Planes                                  74.0          74          74

 RS_GRID| Information for grid number                                          2
 RS_GRID|   Bounds   1            -30      29                Points:          60
 RS_GRID|   Bounds   2            -30      29                Points:          60
 RS_GRID|   Bounds   3           -120     119                Points:         240
 RS_GRID| Real space distribution over                                  8 groups
 RS_GRID| Real space distribution along direction                              2
 RS_GRID| Border size                                                         20
 RS_GRID| Real space distribution over                                 30 groups
 RS_GRID| Real space distribution along direction                              3
 RS_GRID| Border size                                                         20
 RS_GRID|   Distribution                         Average         Max         Min
 RS_GRID|   Planes                                  47.5          48          47
 RS_GRID|   Distribution                         Average         Max         Min
 RS_GRID|   Planes                                  48.0          48          48

 RS_GRID| Information for grid number                                          3
 RS_GRID|   Bounds   1            -16      16                Points:          33
 RS_GRID|   Bounds   2            -16      16                Points:          33
 RS_GRID|   Bounds   3            -70      69                Points:         140
 RS_GRID| Real space fully replicated
 RS_GRID| Group size                                                           1

 RS_GRID| Information for grid number                                          4
 RS_GRID|   Bounds   1            -10       9                Points:          20
 RS_GRID|   Bounds   2            -10       9                Points:          20
 RS_GRID|   Bounds   3            -40      39                Points:          80
 RS_GRID| Real space fully replicated
 RS_GRID| Group size                                                           1

 KPOINTS| Number of kpoint groups                                              1
 KPOINTS| Size of each kpoint group                                          240
 KPOINTS| Number of kpoints per group                                         16

 Number of electrons:                                                       1056
 Number of occupied orbitals:                                                528
 Number of molecular orbitals:                                               628

 Number of orbital functions:                                                864
 Number of independent orbital functions:                                    864

 Extrapolation method: initial_guess


 SCF WAVEFUNCTION OPTIMIZATION

  Step     Update method      Time    Convergence         Total energy    Change
  ------------------------------------------------------------------------------
 SMEAGOL DEBUG| Number of electrons in the unit cell =      1055.9999999945
     1 NoMix/SMGL  0.30E+00  269.6     0.53406976     -3195.0917543175 -3.20E+03
 SMEAGOL DEBUG| Number of electrons in the unit cell =      1055.6233391653
     2 Broy./SMGL  0.30E+00  125.8     3.41980238     -3195.2859363473 -1.94E-01
 SMEAGOL DEBUG| Number of electrons in the unit cell =      1054.5842829064
     3 Broy./SMGL  0.30E+00  123.0     3.40647466     -3239.0403342839 -4.38E+01
 SMEAGOL DEBUG| Number of electrons in the unit cell =      1055.8533193088
     4 Broy./SMGL  0.30E+00  124.3     0.12075041     -3190.3887760526  4.87E+01
 SMEAGOL DEBUG| Number of electrons in the unit cell =      1055.8847605485
     5 Broy./SMGL  0.30E+00  124.7     0.01433457     -3193.5810081705 -3.19E+00
 SMEAGOL DEBUG| Number of electrons in the unit cell =      1056.0387953675
     6 Broy./SMGL  0.30E+00  124.9     0.00816501     -3193.5542630766  2.67E-02
 SMEAGOL DEBUG| Number of electrons in the unit cell =      1056.0037166371
     7 Broy./SMGL  0.30E+00  140.1     0.00931598     -3193.9560605116 -4.02E-01
 SMEAGOL DEBUG| Number of electrons in the unit cell =      1056.0754436806
     8 Broy./SMGL  0.30E+00  126.1     0.00410466     -3193.7899128147  1.66E-01
 SMEAGOL DEBUG| Number of electrons in the unit cell =      1056.0734117578
     9 Broy./SMGL  0.30E+00  125.7     0.00622392     -3194.0526410504 -2.63E-01
 SMEAGOL DEBUG| Number of electrons in the unit cell =      1056.0872358149
    10 Broy./SMGL  0.30E+00  125.0     0.00736108     -3194.1339599547 -8.13E-02
 SMEAGOL DEBUG| Number of electrons in the unit cell =      1056.0766999019
    11 Broy./SMGL  0.30E+00  126.0     0.00920776     -3194.3845671773 -2.51E-01
 SMEAGOL DEBUG| Number of electrons in the unit cell =      1056.0503309837
    12 Broy./SMGL  0.30E+00  125.0     0.01222791     -3194.6715028270 -2.87E-01
 SMEAGOL DEBUG| Number of electrons in the unit cell =      1056.0275645897
    13 Broy./SMGL  0.30E+00  125.1     0.00310996     -3195.1515234383 -4.80E-01
 SMEAGOL DEBUG| Number of electrons in the unit cell =      1056.0188143647
    14 Broy./SMGL  0.30E+00  125.4     0.00143377     -3195.0714265293  8.01E-02
 SMEAGOL DEBUG| Number of electrons in the unit cell =      1056.0146580513
    15 Broy./SMGL  0.30E+00  125.2     0.00045463     -3195.0952398064 -2.38E-02
 SMEAGOL DEBUG| Number of electrons in the unit cell =      1056.0131994636
    16 Broy./SMGL  0.30E+00  126.0     0.00015167     -3195.0962411581 -1.00E-03
 SMEAGOL DEBUG| Number of electrons in the unit cell =      1056.0133553504
    17 Broy./SMGL  0.30E+00  127.7     0.00009333     -3195.0924403779  3.80E-03
 SMEAGOL DEBUG| Number of electrons in the unit cell =      1056.0130266927
    18 Broy./SMGL  0.30E+00  126.1     0.00011550     -3195.0932369334 -7.97E-04
 SMEAGOL DEBUG| Number of electrons in the unit cell =      1056.0126424478
    19 Broy./SMGL  0.30E+00  125.6     0.00015192     -3195.0907263460  2.51E-03
 SMEAGOL DEBUG| Number of electrons in the unit cell =      1056.0127537049
    20 Broy./SMGL  0.30E+00  125.2     0.00015192     -3195.0905936267  1.33E-04
 SMEAGOL DEBUG| Number of electrons in the unit cell =      1056.0127702449
    21 Broy./SMGL  0.30E+00  126.1     0.00001338     -3195.0920392967 -1.45E-03
 SMEAGOL DEBUG| Number of electrons in the unit cell =      1056.0126727518
    22 Broy./SMGL  0.30E+00  125.2     0.00001337     -3195.0919983392  4.10E-05
 SMEAGOL DEBUG| Number of electrons in the unit cell =      1056.0125039233
    23 Broy./SMGL  0.30E+00  125.6     0.00152410     -3195.0917041226  2.94E-04
 SMEAGOL DEBUG| Number of electrons in the unit cell =      1056.0125954858
    24 Broy./SMGL  0.30E+00  127.1     0.00152406     -3195.0911256057  5.79E-04
 SMEAGOL DEBUG| Number of electrons in the unit cell =      1056.0128777561
    25 Broy./SMGL  0.30E+00  126.3     0.00152409     -3195.0911964526 -7.08E-05
 SMEAGOL DEBUG| Number of electrons in the unit cell =      1056.0129732755
    26 Broy./SMGL  0.30E+00  126.6     0.00152411     -3195.0912471952 -5.07E-05
 SMEAGOL DEBUG| Number of electrons in the unit cell =      1056.0130400158
    27 Broy./SMGL  0.30E+00  125.5     0.00076266     -3195.0912606985 -1.35E-05
 SMEAGOL DEBUG| Number of electrons in the unit cell =      1056.0130465290
    28 Broy./SMGL  0.30E+00  126.1     0.00059910     -3195.0912857555 -2.51E-05
 SMEAGOL DEBUG| Number of electrons in the unit cell =      1056.0130768163
    29 Broy./SMGL  0.30E+00  125.2     0.00098028     -3195.0913075264 -2.18E-05
 SMEAGOL DEBUG| Number of electrons in the unit cell =      1056.0130925395
    30 Broy./SMGL  0.30E+00  125.6     0.00098028     -3195.0913419419 -3.44E-05
 SMEAGOL DEBUG| Number of electrons in the unit cell =      1056.0131028500
    31 Broy./SMGL  0.30E+00  126.8     0.00063614     -3195.0913517452 -9.80E-06
 SMEAGOL DEBUG| Number of electrons in the unit cell =      1056.0131020187
    32 Broy./SMGL  0.30E+00  127.5     0.00004453     -3195.0913341022  1.76E-05
 SMEAGOL DEBUG| Number of electrons in the unit cell =      1056.0131248909
    33 Broy./SMGL  0.30E+00  129.9     0.00804855     -3195.0913291001  5.00E-06
 SMEAGOL DEBUG| Number of electrons in the unit cell =      1056.0131219403
    34 Broy./SMGL  0.30E+00  126.0     0.00804995     -3195.0913397385 -1.06E-05
 SMEAGOL DEBUG| Number of electrons in the unit cell =      1056.0131187379
    35 Broy./SMGL  0.30E+00  125.9     0.00014073     -3195.0913375777  2.16E-06
 SMEAGOL DEBUG| Number of electrons in the unit cell =      1056.0131134557
    36 Broy./SMGL  0.30E+00  125.3     0.00014073     -3195.0913315082  6.07E-06
 SMEAGOL DEBUG| Number of electrons in the unit cell =      1056.0130989126
    37 Broy./SMGL  0.30E+00  125.5     0.00000038     -3195.0913379959 -6.49E-06
 SMEAGOL DEBUG| Number of electrons in the unit cell =      1056.0130897466
    38 Broy./SMGL  0.30E+00  126.0     0.00332832     -3195.0913379356  6.03E-08
 SMEAGOL DEBUG| Number of electrons in the unit cell =      1056.0130786573
    39 Broy./SMGL  0.30E+00  126.4     0.00332882     -3195.0913467728 -8.84E-06
 SMEAGOL DEBUG| Number of electrons in the unit cell =      1056.0130859583
    40 Broy./SMGL  0.30E+00  133.4     0.00152415     -3195.0913526982 -5.93E-06
 SMEAGOL DEBUG| Number of electrons in the unit cell =      1056.0130769166
    41 Broy./SMGL  0.30E+00  128.3     0.00098030     -3195.0913399996  1.27E-05
 SMEAGOL DEBUG| Number of electrons in the unit cell =      1056.0130772941
    42 Broy./SMGL  0.30E+00  126.1     0.00098030     -3195.0913492748 -9.28E-06
 SMEAGOL DEBUG| Number of electrons in the unit cell =      1056.0130634121
    43 Broy./SMGL  0.30E+00  125.0     0.00098030     -3195.0913377681  1.15E-05
 SMEAGOL DEBUG| Number of electrons in the unit cell =      1056.0130656456
    44 Broy./SMGL  0.30E+00  127.3     0.00415358     -3195.0913588852 -2.11E-05
 SMEAGOL DEBUG| Number of electrons in the unit cell =      1056.0130667593
    45 Broy./SMGL  0.30E+00  127.8     0.00415548     -3195.0913581474  7.38E-07
 SMEAGOL DEBUG| Number of electrons in the unit cell =      1056.0131529007
    46 Broy./SMGL  0.30E+00  126.2     0.00113752     -3195.0914086936 -5.05E-05
 SMEAGOL DEBUG| Number of electrons in the unit cell =      1056.0130939259
    47 Broy./SMGL  0.30E+00  130.9     0.00098033     -3195.0912841694  1.25E-04
 SMEAGOL DEBUG| Number of electrons in the unit cell =      1056.0130802752
    48 Broy./SMGL  0.30E+00  125.8     0.00063615     -3195.0913412434 -5.71E-05
 SMEAGOL DEBUG| Number of electrons in the unit cell =      1056.0130804982
    49 Broy./SMGL  0.30E+00  126.2     0.00019649     -3195.0913470294 -5.79E-06
 SMEAGOL DEBUG| Number of electrons in the unit cell =      1056.0130722248
    50 Broy./SMGL  0.30E+00  126.8     0.00063616     -3195.0913433500  3.68E-06
 SMEAGOL DEBUG| Number of electrons in the unit cell =      1056.0130784078
    51 Broy./SMGL  0.30E+00  125.8     0.00063616     -3195.0913452109 -1.86E-06
 SMEAGOL DEBUG| Number of electrons in the unit cell =      1056.0130732701
    52 Broy./SMGL  0.30E+00  125.9     0.00063617     -3195.0913597973 -1.46E-05
 SMEAGOL DEBUG| Number of electrons in the unit cell =      1056.0130745211
    53 Broy./SMGL  0.30E+00  125.0     0.00152409     -3195.0913463302  1.35E-05
 SMEAGOL DEBUG| Number of electrons in the unit cell =      1056.0130759385
    54 Broy./SMGL  0.30E+00  126.0     0.00152413     -3195.0913522487 -5.92E-06
 SMEAGOL DEBUG| Number of electrons in the unit cell =      1056.0130854816
    55 Broy./SMGL  0.30E+00  127.6     0.00098025     -3195.0913564497 -4.20E-06
 SMEAGOL DEBUG| Number of electrons in the unit cell =      1056.0130858954
    56 Broy./SMGL  0.30E+00  134.2     0.00098031     -3195.0913607589 -4.31E-06
 SMEAGOL DEBUG| Number of electrons in the unit cell =      1056.0130859247
    57 Broy./SMGL  0.30E+00  127.7     0.00098030     -3195.0913569690  3.79E-06
 SMEAGOL DEBUG| Number of electrons in the unit cell =      1056.0130858911
    58 Broy./SMGL  0.30E+00  127.0     0.00019649     -3195.0913559022  1.07E-06
 SMEAGOL DEBUG| Number of electrons in the unit cell =      1056.0130857351
    59 Broy./SMGL  0.30E+00  128.5     0.00098030     -3195.0913557692  1.33E-07
 SMEAGOL DEBUG| Number of electrons in the unit cell =      1056.0130856876
    60 Broy./SMGL  0.30E+00  127.2     0.00113429     -3195.0913602796 -4.51E-06
 SMEAGOL DEBUG| Number of electrons in the unit cell =      1056.0130801031
    61 Broy./SMGL  0.30E+00  126.5     0.00113503     -3195.0913575641  2.72E-06
 SMEAGOL DEBUG| Number of electrons in the unit cell =      1056.0130806402
    62 Broy./SMGL  0.30E+00  126.3     0.00063619     -3195.0913537422  3.82E-06
 SMEAGOL DEBUG| Number of electrons in the unit cell =      1056.0130857251
    63 Broy./SMGL  0.30E+00  129.1     0.00076266     -3195.0913512973  2.44E-06
 SMEAGOL DEBUG| Number of electrons in the unit cell =      1056.0130785050
    64 Broy./SMGL  0.30E+00  127.4     0.00076265     -3195.0913882776 -3.70E-05
 SMEAGOL DEBUG| Number of electrons in the unit cell =      1056.0130777251
    65 Broy./SMGL  0.30E+00  128.1     0.00021453     -3195.0913431550  4.51E-05
 SMEAGOL DEBUG| Number of electrons in the unit cell =      1056.0130834682
    66 Broy./SMGL  0.30E+00  126.3     0.00021453     -3195.0913437790 -6.24E-07
 SMEAGOL DEBUG| Number of electrons in the unit cell =      1056.0130798633
    67 Broy./SMGL  0.30E+00  125.7     0.00139070     -3195.0913600808 -1.63E-05
 SMEAGOL DEBUG| Number of electrons in the unit cell =      1056.0130799532
    68 Broy./SMGL  0.30E+00  128.0     0.00139138     -3195.0913474521  1.26E-05
 SMEAGOL DEBUG| Number of electrons in the unit cell =      1056.0130765636
    69 Broy./SMGL  0.30E+00  125.8     0.00332820     -3195.0913466096  8.42E-07
 SMEAGOL DEBUG| Number of electrons in the unit cell =      1056.0130761916
    70 Broy./SMGL  0.30E+00  126.4     0.00332897     -3195.0913316994  1.49E-05
 SMEAGOL DEBUG| Number of electrons in the unit cell =      1056.0130783712
    71 Broy./SMGL  0.30E+00  126.3     0.00036889     -3195.0913300709  1.63E-06
 SMEAGOL DEBUG| Number of electrons in the unit cell =      1056.0130846799
    72 Broy./SMGL  0.30E+00  125.7     0.00009554     -3195.0913367278 -6.66E-06
 SMEAGOL DEBUG| Number of electrons in the unit cell =      1056.0130833207
    73 Broy./SMGL  0.30E+00  174.9     0.00098028     -3195.0913560352 -1.93E-05
 SMEAGOL DEBUG| Number of electrons in the unit cell =      1056.0130841912
    74 Broy./SMGL  0.30E+00  125.9     0.00098029     -3195.0913491542  6.88E-06
 SMEAGOL DEBUG| Number of electrons in the unit cell =      1056.0130836516
    75 Broy./SMGL  0.30E+00  127.5     0.00098028     -3195.0913573982 -8.24E-06
 SMEAGOL DEBUG| Number of electrons in the unit cell =      1056.0130831208
    76 Broy./SMGL  0.30E+00  126.1     0.00116022     -3195.0913537111  3.69E-06
 SMEAGOL DEBUG| Number of electrons in the unit cell =      1056.0130831143
    77 Broy./SMGL  0.30E+00  126.2     0.00017220     -3195.0913542526 -5.42E-07
 SMEAGOL DEBUG| Number of electrons in the unit cell =      1056.0130824533
    78 Broy./SMGL  0.30E+00  127.1     0.00627813     -3195.0913539468  3.06E-07
 SMEAGOL DEBUG| Number of electrons in the unit cell =      1056.0130825872
    79 Broy./SMGL  0.30E+00  125.6     0.00723466     -3195.0913523058  1.64E-06
 SMEAGOL DEBUG| Number of electrons in the unit cell =      1056.0130780736
    80 Broy./SMGL  0.30E+00  126.5     0.00724900     -3195.0913523233 -1.76E-08
 SMEAGOL DEBUG| Number of electrons in the unit cell =      1056.0130903472
    81 Broy./SMGL  0.30E+00  125.8     0.00076266     -3195.0913361742  1.61E-05
 SMEAGOL DEBUG| Number of electrons in the unit cell =      1056.0130788552
    82 Broy./SMGL  0.30E+00  128.0     0.00063618     -3195.0913734009 -3.72E-05
 SMEAGOL DEBUG| Number of electrons in the unit cell =      1056.0130836740
    83 Broy./SMGL  0.30E+00  126.2     0.00098029     -3195.0913399030  3.35E-05
 SMEAGOL DEBUG| Number of electrons in the unit cell =      1056.0130827498
    84 Broy./SMGL  0.30E+00  126.5     0.00076268     -3195.0913552028 -1.53E-05
 SMEAGOL DEBUG| Number of electrons in the unit cell =      1056.0130836188
    85 Broy./SMGL  0.30E+00  126.5     0.00076268     -3195.0913511183  4.08E-06
 SMEAGOL DEBUG| Number of electrons in the unit cell =      1056.0130828186
    86 Broy./SMGL  0.30E+00  129.3     0.00098028     -3195.0913562934 -5.18E-06
 SMEAGOL DEBUG| Number of electrons in the unit cell =      1056.0130827856
    87 Broy./SMGL  0.30E+00  126.6     0.00098028     -3195.0913523874  3.91E-06
 SMEAGOL DEBUG| Number of electrons in the unit cell =      1056.0130828243
    88 Broy./SMGL  0.30E+00  125.6     0.00098030     -3195.0913523293  5.81E-08
 SMEAGOL DEBUG| Number of electrons in the unit cell =      1056.0130815085
    89 Broy./SMGL  0.30E+00  126.4     0.00116022     -3195.0913521403  1.89E-07
 SMEAGOL DEBUG| Number of electrons in the unit cell =      1056.0130815036
    90 Broy./SMGL  0.30E+00  126.1     0.00332833     -3195.0913504327  1.71E-06
 SMEAGOL DEBUG| Number of electrons in the unit cell =      1056.0130813066
    91 Broy./SMGL  0.30E+00  126.0     0.00332887     -3195.0913504260  6.64E-09
 SMEAGOL DEBUG| Number of electrons in the unit cell =      1056.0130839901
    92 Broy./SMGL  0.30E+00  126.7     0.00098026     -3195.0913497319  6.94E-07
 SMEAGOL DEBUG| Number of electrons in the unit cell =      1056.0130794522
    93 Broy./SMGL  0.30E+00  126.5     0.00098025     -3195.0913564844 -6.75E-06
 SMEAGOL DEBUG| Number of electrons in the unit cell =      1056.0130827927
    94 Broy./SMGL  0.30E+00  126.6     0.00152410     -3195.0913428309  1.37E-05
 SMEAGOL DEBUG| Number of electrons in the unit cell =      1056.0130818658
    95 Broy./SMGL  0.30E+00  125.7     0.00098028     -3195.0913502252 -7.39E-06
 SMEAGOL DEBUG| Number of electrons in the unit cell =      1056.0130867585
    96 Broy./SMGL  0.30E+00  126.7     0.00098034     -3195.0913447901  5.44E-06
 SMEAGOL DEBUG| Number of electrons in the unit cell =      1056.0130754975
    97 Broy./SMGL  0.30E+00  126.9     0.00098030     -3195.0913737663 -2.90E-05
 SMEAGOL DEBUG| Number of electrons in the unit cell =      1056.0130828618
    98 Broy./SMGL  0.30E+00  126.3     0.00098029     -3195.0913017010  7.21E-05
 SMEAGOL DEBUG| Number of electrons in the unit cell =      1056.0130828742
    99 Broy./SMGL  0.30E+00  127.8     0.00018304     -3195.0913522774 -5.06E-05
 SMEAGOL DEBUG| Number of electrons in the unit cell =      1056.0130828809
   100 Broy./SMGL  0.30E+00  126.0     0.00098028     -3195.0913523015 -2.42E-08
 SMEAGOL DEBUG| Number of electrons in the unit cell =      1056.0130822169
   101 Broy./SMGL  0.30E+00  126.7     0.00723457     -3195.0913515333  7.68E-07
 SMEAGOL DEBUG| Number of electrons in the unit cell =      1056.0130826513
   102 Broy./SMGL  0.30E+00  127.7     0.00723763     -3195.0913498190  1.71E-06
 SMEAGOL DEBUG| Number of electrons in the unit cell =      1056.0130830367
   103 Broy./SMGL  0.30E+00  126.5     0.00098030     -3195.0913510745 -1.26E-06
 SMEAGOL DEBUG| Number of electrons in the unit cell =      1056.0130828777
   104 Broy./SMGL  0.30E+00  127.0     0.00804861     -3195.0913516319 -5.57E-07
 SMEAGOL DEBUG| Number of electrons in the unit cell =      1056.0130828283
   105 Broy./SMGL  0.30E+00  125.7     0.00805003     -3195.0913520921 -4.60E-07
 SMEAGOL DEBUG| Number of electrons in the unit cell =      1056.0130832517
   106 Broy./SMGL  0.30E+00  127.0     0.00152415     -3195.0913520641  2.80E-08
 SMEAGOL DEBUG| Number of electrons in the unit cell =      1056.0130829714
   107 Broy./SMGL  0.30E+00  127.5     0.00152416     -3195.0913523340 -2.70E-07
 SMEAGOL DEBUG| Number of electrons in the unit cell =      1056.0130824453
   108 Broy./SMGL  0.30E+00  126.8     0.00098031     -3195.0913543257 -1.99E-06
 SMEAGOL DEBUG| Number of electrons in the unit cell =      1056.0130833339
   109 Broy./SMGL  0.30E+00  126.6     0.00029256     -3195.0913494656  4.86E-06
 SMEAGOL DEBUG| Number of electrons in the unit cell =      1056.0130825086
   110 Broy./SMGL  0.30E+00  126.5     0.00098028     -3195.0913534602 -3.99E-06
 SMEAGOL DEBUG| Number of electrons in the unit cell =      1056.0130824851
   111 Broy./SMGL  0.30E+00  125.9     0.00098028     -3195.0913504894  2.97E-06
 SMEAGOL DEBUG| Number of electrons in the unit cell =      1056.0130831312
   112 Broy./SMGL  0.30E+00  127.9     0.00098030     -3195.0913506182 -1.29E-07
 SMEAGOL DEBUG| Number of electrons in the unit cell =      1056.0130819368
   113 Broy./SMGL  0.30E+00  127.3     0.00045486     -3195.0913521899 -1.57E-06
 SMEAGOL DEBUG| Number of electrons in the unit cell =      1056.0130839585
   114 Broy./SMGL  0.30E+00  149.0     0.00550677     -3195.0913497668  2.42E-06
 SMEAGOL DEBUG| Number of electrons in the unit cell =      1056.0130839894
   115 Broy./SMGL  0.30E+00  126.5     0.00723447     -3195.0913551127 -5.35E-06
 SMEAGOL DEBUG| Number of electrons in the unit cell =      1056.0130939917
   116 Broy./SMGL  0.30E+00  126.7     0.00724557     -3195.0913584381 -3.33E-06
 SMEAGOL DEBUG| Number of electrons in the unit cell =      1056.0130702262
   117 Broy./SMGL  0.30E+00  126.1     0.00415369     -3195.0913913394 -3.29E-05
 SMEAGOL DEBUG| Number of electrons in the unit cell =      1056.0130663869
   118 Broy./SMGL  0.30E+00  126.7     0.00415562     -3195.0913038595  8.75E-05
 SMEAGOL DEBUG| Number of electrons in the unit cell =      1056.0131049396
   119 Broy./SMGL  0.30E+00  128.9     0.00076265     -3195.0912936311  1.02E-05
 SMEAGOL DEBUG| Number of electrons in the unit cell =      1056.0130854230
   120 Broy./SMGL  0.30E+00  127.4     0.00098029     -3195.0914604803 -1.67E-04
 SMEAGOL DEBUG| Number of electrons in the unit cell =      1056.0130800156
   121 Broy./SMGL  0.30E+00  127.0     0.00098029     -3195.0913550015  1.05E-04
 SMEAGOL DEBUG| Number of electrons in the unit cell =      1056.0130832867
   122 Broy./SMGL  0.30E+00  127.2     0.00029257     -3195.0913450218  9.98E-06
 SMEAGOL DEBUG| Number of electrons in the unit cell =      1056.0130831851
   123 Broy./SMGL  0.30E+00  127.5     0.00029257     -3195.0913531913 -8.17E-06
 SMEAGOL DEBUG| Number of electrons in the unit cell =      1056.0130825615
   124 Broy./SMGL  0.30E+00  126.7     0.00029257     -3195.0913528405  3.51E-07
 SMEAGOL DEBUG| Number of electrons in the unit cell =      1056.0130809995
   125 Broy./SMGL  0.30E+00  130.6     0.00152417     -3195.0913508262  2.01E-06
 SMEAGOL DEBUG| Number of electrons in the unit cell =      1056.0130832923
   126 Broy./SMGL  0.30E+00  128.9     0.00152418     -3195.0913483296  2.50E-06
 SMEAGOL DEBUG| Number of electrons in the unit cell =      1056.0130830663
   127 Broy./SMGL  0.30E+00  129.2     0.00076267     -3195.0913534930 -5.16E-06
 SMEAGOL DEBUG| Number of electrons in the unit cell =      1056.0130830463
   128 Broy./SMGL  0.30E+00  126.3     0.00113430     -3195.0913529312  5.62E-07
 SMEAGOL DEBUG| Number of electrons in the unit cell =      1056.0130832019
   129 Broy./SMGL  0.30E+00  125.9     0.00113445     -3195.0913529931 -6.19E-08
 SMEAGOL DEBUG| Number of electrons in the unit cell =      1056.0130827489
   130 Broy./SMGL  0.30E+00  127.4     0.00005147     -3195.0913533479 -3.55E-07
 SMEAGOL DEBUG| Number of electrons in the unit cell =      1056.0130831401
   131 Broy./SMGL  0.30E+00  126.1     0.00095783     -3195.0913521850  1.16E-06
 SMEAGOL DEBUG| Number of electrons in the unit cell =      1056.0130832358
   132 Broy./SMGL  0.30E+00  127.6     0.00095792     -3195.0913526817 -4.97E-07
 SMEAGOL DEBUG| Number of electrons in the unit cell =      1056.0130831674
   133 Broy./SMGL  0.30E+00  126.4     0.00005147     -3195.0913529485 -2.67E-07
 SMEAGOL DEBUG| Number of electrons in the unit cell =      1056.0130827026
   134 Broy./SMGL  0.30E+00  129.7     0.00000019     -3195.0913550887 -2.14E-06
 SMEAGOL DEBUG| Number of electrons in the unit cell =      1056.0130830127
   135 Broy./SMGL  0.30E+00  126.8     0.00018302     -3195.0913518020  3.29E-06
 SMEAGOL DEBUG| Number of electrons in the unit cell =      1056.0130830296
   136 Broy./SMGL  0.30E+00  128.2     0.00018305     -3195.0913528268 -1.02E-06
 SMEAGOL DEBUG| Number of electrons in the unit cell =      1056.0130829463
   137 Broy./SMGL  0.30E+00  126.2     0.00005147     -3195.0913528098  1.70E-08
 SMEAGOL DEBUG| Number of electrons in the unit cell =      1056.0130829166
   138 Broy./SMGL  0.30E+00  125.2     0.00005147     -3195.0913525992  2.11E-07
 SMEAGOL DEBUG| Number of electrons in the unit cell =      1056.0130829597
   139 Broy./SMGL  0.30E+00  129.5     0.00113435     -3195.0913525181  8.11E-08
 SMEAGOL DEBUG| Number of electrons in the unit cell =      1056.0130829009
   140 Broy./SMGL  0.30E+00  128.6     0.00113455     -3195.0913525938 -7.57E-08
 SMEAGOL DEBUG| Number of electrons in the unit cell =      1056.0130830144
   141 Broy./SMGL  0.30E+00  127.1     0.00627808     -3195.0913525233  7.06E-08
 SMEAGOL DEBUG| Number of electrons in the unit cell =      1056.0130839853
   142 Broy./SMGL  0.30E+00  128.8     0.00628138     -3195.0913530920 -5.69E-07
 SMEAGOL DEBUG| Number of electrons in the unit cell =      1056.0130818980
   143 Broy./SMGL  0.30E+00  149.4     0.00098030     -3195.0913552907 -2.20E-06
 SMEAGOL DEBUG| Number of electrons in the unit cell =      1056.0130825724
   144 Broy./SMGL  0.30E+00  128.8     0.00063617     -3195.0913504699  4.82E-06
 SMEAGOL DEBUG| Number of electrons in the unit cell =      1056.0130836169
   145 Broy./SMGL  0.30E+00  126.7     0.00063617     -3195.0913498267  6.43E-07
 SMEAGOL DEBUG| Number of electrons in the unit cell =      1056.0130837620
   146 Broy./SMGL  0.30E+00  126.9     0.00098029     -3195.0913553760 -5.55E-06
 SMEAGOL DEBUG| Number of electrons in the unit cell =      1056.0130821121
   147 Broy./SMGL  0.30E+00  127.8     0.00113427     -3195.0913556674 -2.91E-07
 SMEAGOL DEBUG| Number of electrons in the unit cell =      1056.0130845644
   148 Broy./SMGL  0.30E+00  126.4     0.00332832     -3195.0913502200  5.45E-06
 SMEAGOL DEBUG| Number of electrons in the unit cell =      1056.0130842558
   149 Broy./SMGL  0.30E+00  126.7     0.00332887     -3195.0913591331 -8.91E-06
 SMEAGOL DEBUG| Number of electrons in the unit cell =      1056.0130805862
   150 Broy./SMGL  0.30E+00  127.2     0.00152413     -3195.0913571452  1.99E-06
 SMEAGOL DEBUG| Number of electrons in the unit cell =      1056.0130836348
   151 Broy./SMGL  0.30E+00  128.7     0.00152412     -3195.0913441889  1.30E-05
 SMEAGOL DEBUG| Number of electrons in the unit cell =      1056.0130828069
   152 Broy./SMGL  0.30E+00  127.1     0.00076266     -3195.0913549266 -1.07E-05
 SMEAGOL DEBUG| Number of electrons in the unit cell =      1056.0130825521
   153 Broy./SMGL  0.30E+00  126.2     0.00021883     -3195.0913521407  2.79E-06
 SMEAGOL DEBUG| Number of electrons in the unit cell =      1056.0130836563
   154 Broy./SMGL  0.30E+00  128.0     0.00095785     -3195.0913537503 -1.61E-06
 SMEAGOL DEBUG| Number of electrons in the unit cell =      1056.0130836343
   155 Broy./SMGL  0.30E+00  127.4     0.00723444     -3195.0913493112  4.44E-06
 SMEAGOL DEBUG| Number of electrons in the unit cell =      1056.0130820814
   156 Broy./SMGL  0.30E+00  126.5     0.00723865     -3195.0913488123  4.99E-07
 SMEAGOL DEBUG| Number of electrons in the unit cell =      1056.0130830377
   157 Broy./SMGL  0.30E+00  126.1     0.00152412     -3195.0913419189  6.89E-06
 SMEAGOL DEBUG| Number of electrons in the unit cell =      1056.0130843744
   158 Broy./SMGL  0.30E+00  126.8     0.00098028     -3195.0913762286 -3.43E-05
 SMEAGOL DEBUG| Number of electrons in the unit cell =      1056.0130811801
   159 Broy./SMGL  0.30E+00  126.6     0.00152415     -3195.0913561210  2.01E-05
 SMEAGOL DEBUG| Number of electrons in the unit cell =      1056.0130840211
   160 Broy./SMGL  0.30E+00  127.5     0.00005146     -3195.0913478314  8.29E-06
 SMEAGOL DEBUG| Number of electrons in the unit cell =      1056.0130823619
   161 Broy./SMGL  0.30E+00  127.9     0.00053730     -3195.0913559330 -8.10E-06
 SMEAGOL DEBUG| Number of electrons in the unit cell =      1056.0130823175
   162 Broy./SMGL  0.30E+00  128.0     0.00053729     -3195.0913504154  5.52E-06
 SMEAGOL DEBUG| Number of electrons in the unit cell =      1056.0130827796
   163 Broy./SMGL  0.30E+00  126.5     0.00000007     -3195.0913504165 -1.14E-09
 SMEAGOL DEBUG| Number of electrons in the unit cell =      1056.0130829407
   164 Broy./SMGL  0.30E+00  126.1     0.00098032     -3195.0913519932 -1.58E-06
 SMEAGOL DEBUG| Number of electrons in the unit cell =      1056.0130830528
   165 Broy./SMGL  0.30E+00  127.7     0.00152407     -3195.0913525865 -5.93E-07
 SMEAGOL DEBUG| Number of electrons in the unit cell =      1056.0130820992
   166 Broy./SMGL  0.30E+00  126.6     0.00113429     -3195.0913526905 -1.04E-07
 SMEAGOL DEBUG| Number of electrons in the unit cell =      1056.0130824761
   167 Broy./SMGL  0.30E+00  125.2     0.00113540     -3195.0913497220  2.97E-06
 SMEAGOL DEBUG| Number of electrons in the unit cell =      1056.0130869584
   168 Broy./SMGL  0.30E+00  127.0     0.00076264     -3195.0913508136 -1.09E-06
 SMEAGOL DEBUG| Number of electrons in the unit cell =      1056.0130792781
   169 Broy./SMGL  0.30E+00  127.8     0.00063615     -3195.0913646437 -1.38E-05
 SMEAGOL DEBUG| Number of electrons in the unit cell =      1056.0130832726
   170 Broy./SMGL  0.30E+00  126.2     0.00098028     -3195.0913396259  2.50E-05
 SMEAGOL DEBUG| Number of electrons in the unit cell =      1056.0130832726
   171 Broy./SMGL  0.30E+00  130.3     0.00098028     -3195.0913538886 -1.43E-05
 SMEAGOL DEBUG| Number of electrons in the unit cell =      1056.0130833135
   172 Broy./SMGL  0.30E+00  147.1     0.00269341     -3195.0913538834  5.18E-09
 SMEAGOL DEBUG| Number of electrons in the unit cell =      1056.0130831239
   173 Broy./SMGL  0.30E+00  126.3     0.00269386     -3195.0913535838  3.00E-07
 SMEAGOL DEBUG| Number of electrons in the unit cell =      1056.0130830516
   174 Broy./SMGL  0.30E+00  131.3     0.00098028     -3195.0913530411  5.43E-07
 SMEAGOL DEBUG| Number of electrons in the unit cell =      1056.0130830085
   175 Broy./SMGL  0.30E+00  127.1     0.00098028     -3195.0913532981 -2.57E-07
 SMEAGOL DEBUG| Number of electrons in the unit cell =      1056.0130828554
   176 Broy./SMGL  0.30E+00  125.3     0.00009771     -3195.0913520592  1.24E-06
 SMEAGOL DEBUG| Number of electrons in the unit cell =      1056.0130819899
   177 Broy./SMGL  0.30E+00  126.6     0.00045486     -3195.0913553528 -3.29E-06
 SMEAGOL DEBUG| Number of electrons in the unit cell =      1056.0130839795
   178 Broy./SMGL  0.30E+00  127.6     0.00098030     -3195.0913452927  1.01E-05
 SMEAGOL DEBUG| Number of electrons in the unit cell =      1056.0130820159
   179 Broy./SMGL  0.30E+00  125.7     0.00723444     -3195.0913558294 -1.05E-05
 SMEAGOL DEBUG| Number of electrons in the unit cell =      1056.0130826104
   180 Broy./SMGL  0.30E+00  126.1     0.00723757     -3195.0913495933  6.24E-06
 SMEAGOL DEBUG| Number of electrons in the unit cell =      1056.0130829346
   181 Broy./SMGL  0.30E+00  125.6     0.00723438     -3195.0913516784 -2.09E-06
 SMEAGOL DEBUG| Number of electrons in the unit cell =      1056.0130826411
   182 Broy./SMGL  0.30E+00  127.3     0.00723780     -3195.0913524952 -8.17E-07
 SMEAGOL DEBUG| Number of electrons in the unit cell =      1056.0130830935
   183 Broy./SMGL  0.30E+00  127.1     0.00098029     -3195.0913520210  4.74E-07
 SMEAGOL DEBUG| Number of electrons in the unit cell =      1056.0130831226
   184 Broy./SMGL  0.30E+00  126.8     0.00269341     -3195.0913531763 -1.16E-06
 SMEAGOL DEBUG| Number of electrons in the unit cell =      1056.0130829337
   185 Broy./SMGL  0.30E+00  127.3     0.00269393     -3195.0913531185  5.78E-08
 SMEAGOL DEBUG| Number of electrons in the unit cell =      1056.0130829647
   186 Broy./SMGL  0.30E+00  125.4     0.00152408     -3195.0913525174  6.01E-07
 SMEAGOL DEBUG| Number of electrons in the unit cell =      1056.0130828727
   187 Broy./SMGL  0.30E+00  126.5     0.00269342     -3195.0913526932 -1.76E-07
 SMEAGOL DEBUG| Number of electrons in the unit cell =      1056.0130828762
   188 Broy./SMGL  0.30E+00  125.5     0.00269388     -3195.0913519777  7.15E-07
 SMEAGOL DEBUG| Number of electrons in the unit cell =      1056.0130830987
   189 Broy./SMGL  0.30E+00  126.7     0.00074625     -3195.0913521052 -1.27E-07
 SMEAGOL DEBUG| Number of electrons in the unit cell =      1056.0130816216
   190 Broy./SMGL  0.30E+00  126.3     0.00076266     -3195.0913534258 -1.32E-06
 SMEAGOL DEBUG| Number of electrons in the unit cell =      1056.0130830126
   191 Broy./SMGL  0.30E+00  127.0     0.00116021     -3195.0913409142  1.25E-05
 SMEAGOL DEBUG| Number of electrons in the unit cell =      1056.0130829347
   192 Broy./SMGL  0.30E+00  128.3     0.00098030     -3195.0913533141 -1.24E-05
 SMEAGOL DEBUG| Number of electrons in the unit cell =      1056.0130829342
   193 Broy./SMGL  0.30E+00  128.9     0.00087155     -3195.0913519842  1.33E-06
 SMEAGOL DEBUG| Number of electrons in the unit cell =      1056.0130829323
   194 Broy./SMGL  0.30E+00  130.6     0.00087175     -3195.0913519840  2.16E-10
 SMEAGOL DEBUG| Number of electrons in the unit cell =      1056.0130828533
   195 Broy./SMGL  0.30E+00  126.3     0.00045486     -3195.0913519463  3.77E-08
 SMEAGOL DEBUG| Number of electrons in the unit cell =      1056.0130834122
   196 Broy./SMGL  0.30E+00  127.3     0.00269342     -3195.0913524516 -5.05E-07
 SMEAGOL DEBUG| Number of electrons in the unit cell =      1056.0130834282
   197 Broy./SMGL  0.30E+00  136.9     0.00269387     -3195.0913541922 -1.74E-06
 SMEAGOL DEBUG| Number of electrons in the unit cell =      1056.0130824655
   198 Broy./SMGL  0.30E+00  126.7     0.00015192     -3195.0913539849  2.07E-07
 SMEAGOL DEBUG| Number of electrons in the unit cell =      1056.0130848461
   199 Broy./SMGL  0.30E+00  127.0     0.00015192     -3195.0913517843  2.20E-06
 SMEAGOL DEBUG| Number of electrons in the unit cell =      1056.0130828265
   200 Broy./SMGL  0.30E+00  126.8     0.00269342     -3195.0913581925 -6.41E-06
 SMEAGOL DEBUG| Number of electrons in the unit cell =      1056.0131025827
   201 Broy./SMGL  0.30E+00  126.0     0.00269695     -3195.0913595744 -1.38E-06
 SMEAGOL DEBUG| Number of electrons in the unit cell =      1056.0130460355
   202 Broy./SMGL  0.30E+00  126.9     0.00116018     -3195.0914459996 -8.64E-05
 SMEAGOL DEBUG| Number of electrons in the unit cell =      1056.0130799570
   203 Broy./SMGL  0.30E+00  127.2     0.00332844     -3195.0911283697  3.18E-04
 SMEAGOL DEBUG| Number of electrons in the unit cell =      1056.0130834022
   204 Broy./SMGL  0.30E+00  127.0     0.00332873     -3195.0913445012 -2.16E-04
 SMEAGOL DEBUG| Number of electrons in the unit cell =      1056.0130845756
   205 Broy./SMGL  0.30E+00  127.2     0.00098027     -3195.0913538823 -9.38E-06
 SMEAGOL DEBUG| Number of electrons in the unit cell =      1056.0130814329
   206 Broy./SMGL  0.30E+00  127.5     0.00098909     -3195.0913560158 -2.13E-06
 SMEAGOL DEBUG| Number of electrons in the unit cell =      1056.0130839053
   207 Broy./SMGL  0.30E+00  125.8     0.00723444     -3195.0913482630  7.75E-06
 SMEAGOL DEBUG| Number of electrons in the unit cell =      1056.0130844059
   208 Broy./SMGL  0.30E+00  128.1     0.00723774     -3195.0913556446 -7.38E-06
 SMEAGOL DEBUG| Number of electrons in the unit cell =      1056.0130815920
   209 Broy./SMGL  0.30E+00  126.3     0.00116026     -3195.0913561430 -4.98E-07
 SMEAGOL DEBUG| Number of electrons in the unit cell =      1056.0130922683
   210 Broy./SMGL  0.30E+00  126.6     0.00076270     -3195.0913513663  4.78E-06
 SMEAGOL DEBUG| Number of electrons in the unit cell =      1056.0130917112
   211 Broy./SMGL  0.30E+00  129.0     0.00118583     -3195.0913680895 -1.67E-05
 SMEAGOL DEBUG| Number of electrons in the unit cell =      1056.0130834606
   212 Broy./SMGL  0.30E+00  127.2     0.00098030     -3195.0914176019 -4.95E-05
 SMEAGOL DEBUG| Number of electrons in the unit cell =      1056.0130748515
   213 Broy./SMGL  0.30E+00  128.7     0.00098030     -3195.0913728715  4.47E-05
 SMEAGOL DEBUG| Number of electrons in the unit cell =      1056.0130858846
   214 Broy./SMGL  0.30E+00  125.9     0.00057355     -3195.0913234147  4.95E-05
 SMEAGOL DEBUG| Number of electrons in the unit cell =      1056.0130817840
   215 Broy./SMGL  0.30E+00  127.5     0.00152530     -3195.0913629914 -3.96E-05
 SMEAGOL DEBUG| Number of electrons in the unit cell =      1056.0130825380
   216 Broy./SMGL  0.30E+00  128.6     0.00152413     -3195.0913492138  1.38E-05
 SMEAGOL DEBUG| Number of electrons in the unit cell =      1056.0130830760
   217 Broy./SMGL  0.30E+00  129.2     0.00033958     -3195.0913515352 -2.32E-06
 SMEAGOL DEBUG| Number of electrons in the unit cell =      1056.0130830115
   218 Broy./SMGL  0.30E+00  127.7     0.00018305     -3195.0913528413 -1.31E-06
 SMEAGOL DEBUG| Number of electrons in the unit cell =      1056.0130829527
   219 Broy./SMGL  0.30E+00  125.3     0.00152412     -3195.0913526995  1.42E-07
 SMEAGOL DEBUG| Number of electrons in the unit cell =      1056.0130828771
   220 Broy./SMGL  0.30E+00  128.8     0.00098028     -3195.0913525149  1.85E-07
 SMEAGOL DEBUG| Number of electrons in the unit cell =      1056.0130832630
   221 Broy./SMGL  0.30E+00  127.5     0.00009771     -3195.0913529446 -4.30E-07
 SMEAGOL DEBUG| Number of electrons in the unit cell =      1056.0130823722
   222 Broy./SMGL  0.30E+00  150.6     0.00550674     -3195.0913532435 -2.99E-07
 SMEAGOL DEBUG| Number of electrons in the unit cell =      1056.0130830891
   223 Broy./SMGL  0.30E+00  127.0     0.00550752     -3195.0913538329 -5.89E-07
 SMEAGOL DEBUG| Number of electrons in the unit cell =      1056.0130814902
   224 Broy./SMGL  0.30E+00  125.8     0.00098031     -3195.0913557213 -1.89E-06
 SMEAGOL DEBUG| Number of electrons in the unit cell =      1056.0130832795
   225 Broy./SMGL  0.30E+00  126.9     0.00005146     -3195.0913392044  1.65E-05
 SMEAGOL DEBUG| Number of electrons in the unit cell =      1056.0130825869
   226 Broy./SMGL  0.30E+00  126.4     0.00000007     -3195.0913538256 -1.46E-05
 SMEAGOL DEBUG| Number of electrons in the unit cell =      1056.0130833044
   227 Broy./SMGL  0.30E+00  125.9     0.00018302     -3195.0913516276  2.20E-06
 SMEAGOL DEBUG| Number of electrons in the unit cell =      1056.0130832000
   228 Broy./SMGL  0.30E+00  130.6     0.00019648     -3195.0913537212 -2.09E-06
 SMEAGOL DEBUG| Number of electrons in the unit cell =      1056.0130831319
   229 Broy./SMGL  0.30E+00  127.4     0.00019653     -3195.0913533736  3.48E-07
 SMEAGOL DEBUG| Number of electrons in the unit cell =      1056.0130830201
   230 Broy./SMGL  0.30E+00  127.2     0.00000008     -3195.0913531293  2.44E-07
 SMEAGOL DEBUG| Number of electrons in the unit cell =      1056.0130828267
   231 Broy./SMGL  0.30E+00  127.8     0.00000016     -3195.0913527014  4.28E-07
 SMEAGOL DEBUG| Number of electrons in the unit cell =      1056.0130837883
   232 Broy./SMGL  0.30E+00  130.0     0.00008001     -3195.0913524565  2.45E-07
 SMEAGOL DEBUG| Number of electrons in the unit cell =      1056.0130823927
   233 Broy./SMGL  0.30E+00  126.1     0.00113428     -3195.0913548896 -2.43E-06
 SMEAGOL DEBUG| Number of electrons in the unit cell =      1056.0130828256
   234 Broy./SMGL  0.30E+00  127.2     0.00332834     -3195.0913508482  4.04E-06
[...]
   315 Broy./SMGL  0.30E+00  126.3     0.00152411     -3195.0913506474  4.78E-06
 SMEAGOL DEBUG| Number of electrons in the unit cell =      1056.0130827072
   316 Broy./SMGL  0.30E+00  126.2     0.00152411     -3195.0913633893 -1.27E-05
 SMEAGOL DEBUG| Number of electrons in the unit cell =      1056.0130829643
   317 Broy./SMGL  0.30E+00  127.3     0.00269341     -3195.0913520146  1.14E-05
 SMEAGOL DEBUG| Number of electrons in the unit cell =      1056.0130830954
   318 Broy./SMGL  0.30E+00  126.9     0.00269389     -3195.0913528039 -7.89E-07
 SMEAGOL DEBUG| Number of electrons in the unit cell =      1056.0130829523
   319 Broy./SMGL  0.30E+00  127.0     0.00098034     -3195.0913531219 -3.18E-07
 SMEAGOL DEBUG| Number of electrons in the unit cell =      1056.0130827483
   320 Broy./SMGL  0.30E+00  126.3     0.00113432     -3195.0913525652  5.57E-07
 SMEAGOL DEBUG| Number of electrons in the unit cell =      1056.0130827727
   321 Broy./SMGL  0.30E+00  126.1     0.00113463     -3195.0913515269  1.04E-06
 SMEAGOL DEBUG| Number of electrons in the unit cell =      1056.0130826458
   322 Broy./SMGL  0.30E+00  125.8     0.00118574     -3195.0913517173 -1.90E-07
 SMEAGOL DEBUG| Number of electrons in the unit cell =      1056.0130825445
   323 Broy./SMGL  0.30E+00  127.2     0.00550672     -3195.0913520231 -3.06E-07
 SMEAGOL DEBUG| Number of electrons in the unit cell =      1056.0130834276
   324 Broy./SMGL  0.30E+00  126.6     0.00550757     -3195.0913496950  2.33E-06
 SMEAGOL DEBUG| Number of electrons in the unit cell =      1056.0130830996
   325 Broy./SMGL  0.30E+00  133.5     0.00418390     -3195.0913511952 -1.50E-06
 SMEAGOL DEBUG| Number of electrons in the unit cell =      1056.0130828817
   326 Broy./SMGL  0.30E+00  127.6     0.00074630     -3195.0913528878 -1.69E-06
 SMEAGOL DEBUG| Number of electrons in the unit cell =      1056.0130825451
   327 Broy./SMGL  0.30E+00  126.4     0.00039685     -3195.0913532946 -4.07E-07
 SMEAGOL DEBUG| Number of electrons in the unit cell =      1056.0130845452
   328 Broy./SMGL  0.30E+00  126.5     0.00039701     -3195.0913482419  5.05E-06
 SMEAGOL DEBUG| Number of electrons in the unit cell =      1056.0130822874
   329 Broy./SMGL  0.30E+00  126.7     0.00036890     -3195.0913679051 -1.97E-05
 SMEAGOL DEBUG| Number of electrons in the unit cell =      1056.0130845652
   330 Broy./SMGL  0.30E+00  127.2     0.00036893     -3195.0913506027  1.73E-05
 SMEAGOL DEBUG| Number of electrons in the unit cell =      1056.0130808704
   331 Broy./SMGL  0.30E+00  153.7     0.00269339     -3195.0913569040 -6.30E-06
 SMEAGOL DEBUG| Number of electrons in the unit cell =      1056.0130807923
   332 Broy./SMGL  0.30E+00  132.0     0.00269385     -3195.0913453767  1.15E-05
 SMEAGOL DEBUG| Number of electrons in the unit cell =      1056.0130826080
   333 Broy./SMGL  0.30E+00  126.3     0.00033356     -3195.0913457071 -3.30E-07
 SMEAGOL DEBUG| Number of electrons in the unit cell =      1056.0130773144
   334 Broy./SMGL  0.30E+00  127.4     0.00152418     -3195.0913496197 -3.91E-06
 SMEAGOL DEBUG| Number of electrons in the unit cell =      1056.0130779040
   335 Broy./SMGL  0.30E+00  128.0     0.00113445     -3195.0913334581  1.62E-05
 SMEAGOL DEBUG| Number of electrons in the unit cell =      1056.0130858337
   336 Broy./SMGL  0.30E+00  127.7     0.00152416     -3195.0913377843 -4.33E-06
 SMEAGOL DEBUG| Number of electrons in the unit cell =      1056.0130874781
   337 Broy./SMGL  0.30E+00  151.5     0.00098026     -3195.0913626612 -2.49E-05
 SMEAGOL DEBUG| Number of electrons in the unit cell =      1056.0130818601
   338 Broy./SMGL  0.30E+00  125.5     0.00098031     -3195.0913635333 -8.72E-07
 SMEAGOL DEBUG| Number of electrons in the unit cell =      1056.0130815985
   339 Broy./SMGL  0.30E+00  128.5     0.00196054     -3195.0913588880  4.65E-06
 SMEAGOL DEBUG| Number of electrons in the unit cell =      1056.0130788968
   340 Broy./SMGL  0.30E+00  126.7     0.00415365     -3195.0913562168  2.67E-06
 SMEAGOL DEBUG| Number of electrons in the unit cell =      1056.0130785315
   341 Broy./SMGL  0.30E+00  129.1     0.00415615     -3195.0913278502  2.84E-05
 SMEAGOL DEBUG| Number of electrons in the unit cell =      1056.0130912281
   342 Broy./SMGL  0.30E+00  125.9     0.00118573     -3195.0913316424 -3.79E-06
 SMEAGOL DEBUG| Number of electrons in the unit cell =      1056.0130816223
   343 Broy./SMGL  0.30E+00  128.6     0.00098029     -3195.0913900872 -5.84E-05
 SMEAGOL DEBUG| Number of electrons in the unit cell =      1056.0130816306
   344 Broy./SMGL  0.30E+00  126.5     0.00098029     -3195.0913469286  4.32E-05
 SMEAGOL DEBUG| Number of electrons in the unit cell =      1056.0130829814
   345 Broy./SMGL  0.30E+00  127.0     0.00152407     -3195.0913473779 -4.49E-07
 SMEAGOL DEBUG| Number of electrons in the unit cell =      1056.0130822845
   346 Broy./SMGL  0.30E+00  127.3     0.00152408     -3195.0913514480 -4.07E-06
 SMEAGOL DEBUG| Number of electrons in the unit cell =      1056.0130821113
   347 Broy./SMGL  0.30E+00  125.4     0.00050450     -3195.0913499385  1.51E-06
 SMEAGOL DEBUG| Number of electrons in the unit cell =      1056.0130826847
   348 Broy./SMGL  0.30E+00  127.8     0.00098023     -3195.0913497070  2.32E-07
 SMEAGOL DEBUG| Number of electrons in the unit cell =      1056.0130829697
   349 Broy./SMGL  0.30E+00  127.0     0.00152409     -3195.0913516127 -1.91E-06
 SMEAGOL DEBUG| Number of electrons in the unit cell =      1056.0130828259
   350 Broy./SMGL  0.30E+00  126.3     0.00152413     -3195.0913524560 -8.43E-07
 SMEAGOL DEBUG| Number of electrons in the unit cell =      1056.0130827957
   351 Broy./SMGL  0.30E+00  126.6     0.00332831     -3195.0913518792  5.77E-07
 SMEAGOL DEBUG| Number of electrons in the unit cell =      1056.0130816401
   352 Broy./SMGL  0.30E+00  125.6     0.00332886     -3195.0913527359 -8.57E-07
 SMEAGOL DEBUG| Number of electrons in the unit cell =      1056.0130808451
   353 Broy./SMGL  0.30E+00  126.2     0.00269461     -3195.0913498791  2.86E-06
 SMEAGOL DEBUG| Number of electrons in the unit cell =      1056.0130839791
   354 Broy./SMGL  0.30E+00  129.6     0.00045487     -3195.0913482126  1.67E-06
 SMEAGOL DEBUG| Number of electrons in the unit cell =      1056.0130845491
   355 Broy./SMGL  0.30E+00  127.2     0.00098028     -3195.0913480890  1.24E-07
 SMEAGOL DEBUG| Number of electrons in the unit cell =      1056.0130816820
   356 Broy./SMGL  0.30E+00  126.7     0.00098029     -3195.0913587184 -1.06E-05
 SMEAGOL DEBUG| Number of electrons in the unit cell =      1056.0130832493
   357 Broy./SMGL  0.30E+00  125.5     0.00014072     -3195.0913484296  1.03E-05
 SMEAGOL DEBUG| Number of electrons in the unit cell =      1056.0130828338
   358 Broy./SMGL  0.30E+00  126.7     0.00014072     -3195.0913535109 -5.08E-06
 SMEAGOL DEBUG| Number of electrons in the unit cell =      1056.0130828516
   359 Broy./SMGL  0.30E+00  127.5     0.00014072     -3195.0913521253  1.39E-06
 SMEAGOL DEBUG| Number of electrons in the unit cell =      1056.0130830105
   360 Broy./SMGL  0.30E+00  126.7     0.00014072     -3195.0913522395 -1.14E-07
 SMEAGOL DEBUG| Number of electrons in the unit cell =      1056.0130828101
   361 Broy./SMGL  0.30E+00  149.4     0.00023856     -3195.0913527417 -5.02E-07
 SMEAGOL DEBUG| Number of electrons in the unit cell =      1056.0130827354
   362 Broy./SMGL  0.30E+00  126.3     0.00023854     -3195.0913519073  8.34E-07
 SMEAGOL DEBUG| Number of electrons in the unit cell =      1056.0130829063
   363 Broy./SMGL  0.30E+00  128.5     0.00804860     -3195.0913517593  1.48E-07
 SMEAGOL DEBUG| Number of electrons in the unit cell =      1056.0130821806
   364 Broy./SMGL  0.30E+00  127.3     0.00805003     -3195.0913520633 -3.04E-07
 SMEAGOL DEBUG| Number of electrons in the unit cell =      1056.0130819975
   365 Broy./SMGL  0.30E+00  126.5     0.00113431     -3195.0913516526  4.11E-07
 SMEAGOL DEBUG| Number of electrons in the unit cell =      1056.0130816090
   366 Broy./SMGL  0.30E+00  124.6     0.00113444     -3195.0913414787  1.02E-05
 SMEAGOL DEBUG| Number of electrons in the unit cell =      1056.0130867004
   367 Broy./SMGL  0.30E+00  129.6     0.00040877     -3195.0913428812 -1.40E-06
 SMEAGOL DEBUG| Number of electrons in the unit cell =      1056.0130862439
   368 Broy./SMGL  0.30E+00  125.9     0.00113430     -3195.0913890433 -4.62E-05
 SMEAGOL DEBUG| Number of electrons in the unit cell =      1056.0130864501
   369 Broy./SMGL  0.30E+00  126.6     0.00113446     -3195.0913845106  4.53E-06
 SMEAGOL DEBUG| Number of electrons in the unit cell =      1056.0130739047
   370 Broy./SMGL  0.30E+00  126.4     0.00063621     -3195.0913795103  5.00E-06
 SMEAGOL DEBUG| Number of electrons in the unit cell =      1056.0130828987
   371 Broy./SMGL  0.30E+00  126.2     0.00063621     -3195.0912726275  1.07E-04
 SMEAGOL DEBUG| Number of electrons in the unit cell =      1056.0130830154
   372 Broy./SMGL  0.30E+00  128.8     0.00014073     -3195.0913526247 -8.00E-05
 SMEAGOL DEBUG| Number of electrons in the unit cell =      1056.0130797665
   373 Broy./SMGL  0.30E+00  126.3     0.00029256     -3195.0913517495  8.75E-07
 SMEAGOL DEBUG| Number of electrons in the unit cell =      1056.0130887842
   374 Broy./SMGL  0.30E+00  126.3     0.00029255     -3195.0913446247  7.12E-06
 SMEAGOL DEBUG| Number of electrons in the unit cell =      1056.0130804177
   375 Broy./SMGL  0.30E+00  126.8     0.00014072     -3195.0913695727 -2.49E-05
 SMEAGOL DEBUG| Number of electrons in the unit cell =      1056.0130837238
   376 Broy./SMGL  0.30E+00  126.2     0.00332834     -3195.0913450419  2.45E-05
 SMEAGOL DEBUG| Number of electrons in the unit cell =      1056.0130836021
   377 Broy./SMGL  0.30E+00  126.5     0.00332884     -3195.0913551111 -1.01E-05
 SMEAGOL DEBUG| Number of electrons in the unit cell =      1056.0130830034
   378 Broy./SMGL  0.30E+00  127.3     0.00152412     -3195.0913545508  5.60E-07
 SMEAGOL DEBUG| Number of electrons in the unit cell =      1056.0130829776
   379 Broy./SMGL  0.30E+00  150.8     0.00723447     -3195.0913527270  1.82E-06
 SMEAGOL DEBUG| Number of electrons in the unit cell =      1056.0130826899
   380 Broy./SMGL  0.30E+00  133.3     0.00723770     -3195.0913525421  1.85E-07
 SMEAGOL DEBUG| Number of electrons in the unit cell =      1056.0130843050
   381 Broy./SMGL  0.30E+00  125.4     0.00076265     -3195.0913508338  1.71E-06
 SMEAGOL DEBUG| Number of electrons in the unit cell =      1056.0130822532
   382 Broy./SMGL  0.30E+00  126.2     0.00550666     -3195.0913608869 -1.01E-05
 SMEAGOL DEBUG| Number of electrons in the unit cell =      1056.0130820392
   383 Broy./SMGL  0.30E+00  130.3     0.00550745     -3195.0913490534  1.18E-05
 SMEAGOL DEBUG| Number of electrons in the unit cell =      1056.0131082919
   384 Broy./SMGL  0.30E+00  127.0     0.00096065     -3195.0913561475 -7.09E-06
 SMEAGOL DEBUG| Number of electrons in the unit cell =      1056.0130553497
   385 Broy./SMGL  0.30E+00  126.2     0.00098012     -3195.0914215666 -6.54E-05
 SMEAGOL DEBUG| Number of electrons in the unit cell =      1056.0130901121
   386 Broy./SMGL  0.30E+00  127.2     0.00098038     -3195.0912724419  1.49E-04
 SMEAGOL DEBUG| Number of electrons in the unit cell =      1056.0130820628
   387 Broy./SMGL  0.30E+00  126.8     0.00098032     -3195.0913723684 -9.99E-05
 SMEAGOL DEBUG| Number of electrons in the unit cell =      1056.0130828264
   388 Broy./SMGL  0.30E+00  141.0     0.00098032     -3195.0913496983  2.27E-05
 SMEAGOL DEBUG| Number of electrons in the unit cell =      1056.0130830748
   389 Broy./SMGL  0.30E+00  130.3     0.00098029     -3195.0913522191 -2.52E-06
 SMEAGOL DEBUG| Number of electrons in the unit cell =      1056.0130836382
   390 Broy./SMGL  0.30E+00  125.6     0.00098032     -3195.0913533614 -1.14E-06
 SMEAGOL DEBUG| Number of electrons in the unit cell =      1056.0130822560
   391 Broy./SMGL  0.30E+00  126.5     0.00098030     -3195.0913557390 -2.38E-06
 SMEAGOL DEBUG| Number of electrons in the unit cell =      1056.0130837656
   392 Broy./SMGL  0.30E+00  127.6     0.00269341     -3195.0913493995  6.34E-06
 SMEAGOL DEBUG| Number of electrons in the unit cell =      1056.0130846052
   393 Broy./SMGL  0.30E+00  126.1     0.00269385     -3195.0913573620 -7.96E-06
 SMEAGOL DEBUG| Number of electrons in the unit cell =      1056.0130824600
   394 Broy./SMGL  0.30E+00  127.1     0.00004453     -3195.0913603876 -3.03E-06
 SMEAGOL DEBUG| Number of electrons in the unit cell =      1056.0130831404
   395 Broy./SMGL  0.30E+00  127.5     0.00113427     -3195.0913493860  1.10E-05
 SMEAGOL DEBUG| Number of electrons in the unit cell =      1056.0130832427
   396 Broy./SMGL  0.30E+00  126.9     0.00113442     -3195.0913574874 -8.10E-06
 SMEAGOL DEBUG| Number of electrons in the unit cell =      1056.0130833454
   397 Broy./SMGL  0.30E+00  127.1     0.00098029     -3195.0913576351 -1.48E-07
 SMEAGOL DEBUG| Number of electrons in the unit cell =      1056.0130838325
   398 Broy./SMGL  0.30E+00  126.7     0.00098033     -3195.0913574911  1.44E-07
 SMEAGOL DEBUG| Number of electrons in the unit cell =      1056.0130824285
   399 Broy./SMGL  0.30E+00  126.8     0.00550676     -3195.0913533047  4.19E-06
 SMEAGOL DEBUG| Number of electrons in the unit cell =      1056.0130780266
   400 Broy./SMGL  0.30E+00  125.7     0.00550769     -3195.0913496811  3.62E-06
 SMEAGOL DEBUG| Number of electrons in the unit cell =      1056.0131111224
   401 Broy./SMGL  0.30E+00  127.1     0.00097037     -3195.0913408997  8.78E-06
 SMEAGOL DEBUG| Number of electrons in the unit cell =      1056.0130688239
   402 Broy./SMGL  0.30E+00  126.2     0.00063579     -3195.0914498743 -1.09E-04
 SMEAGOL DEBUG| Number of electrons in the unit cell =      1056.0130989323
   403 Broy./SMGL  0.30E+00  129.8     0.00074626     -3195.0913115545  1.38E-04
 SMEAGOL DEBUG| Number of electrons in the unit cell =      1056.0130808121
   404 Broy./SMGL  0.30E+00  125.3     0.00020517     -3195.0914025836 -9.10E-05
 SMEAGOL DEBUG| Number of electrons in the unit cell =      1056.0130833162
   405 Broy./SMGL  0.30E+00  142.5     0.00074625     -3195.0913444473  5.81E-05
 SMEAGOL DEBUG| Number of electrons in the unit cell =      1056.0130831079
   406 Broy./SMGL  0.30E+00  127.1     0.00076267     -3195.0913552508 -1.08E-05
 SMEAGOL DEBUG| Number of electrons in the unit cell =      1056.0130831510
   407 Broy./SMGL  0.30E+00  128.3     0.00098029     -3195.0913537127  1.54E-06
 SMEAGOL DEBUG| Number of electrons in the unit cell =      1056.0130829558
   408 Broy./SMGL  0.30E+00  133.1     0.00116023     -3195.0913540045 -2.92E-07
 SMEAGOL DEBUG| Number of electrons in the unit cell =      1056.0130831432
   409 Broy./SMGL  0.30E+00  133.6     0.00116022     -3195.0913527076  1.30E-06
 SMEAGOL DEBUG| Number of electrons in the unit cell =      1056.0130823689
   410 Broy./SMGL  0.30E+00  125.9     0.00152411     -3195.0913542424 -1.53E-06
 SMEAGOL DEBUG| Number of electrons in the unit cell =      1056.0130823353
   411 Broy./SMGL  0.30E+00  129.1     0.00057765     -3195.0913480397  6.20E-06
 SMEAGOL DEBUG| Number of electrons in the unit cell =      1056.0130824208
   412 Broy./SMGL  0.30E+00  125.8     0.00050453     -3195.0913473397  7.00E-07
 SMEAGOL DEBUG| Number of electrons in the unit cell =      1056.0130824558
   413 Broy./SMGL  0.30E+00  134.2     0.00095783     -3195.0913477168 -3.77E-07
 SMEAGOL DEBUG| Number of electrons in the unit cell =      1056.0130835358
   414 Broy./SMGL  0.30E+00  126.3     0.00095792     -3195.0913531964 -5.48E-06
 SMEAGOL DEBUG| Number of electrons in the unit cell =      1056.0130817250
   415 Broy./SMGL  0.30E+00  131.9     0.00076266     -3195.0913577071 -4.51E-06
 SMEAGOL DEBUG| Number of electrons in the unit cell =      1056.0130814362
   416 Broy./SMGL  0.30E+00  126.2     0.00113430     -3195.0913401876  1.75E-05
 SMEAGOL DEBUG| Number of electrons in the unit cell =      1056.0130812148
   417 Broy./SMGL  0.30E+00  126.6     0.00415355     -3195.0913378950  2.29E-06
 SMEAGOL DEBUG| Number of electrons in the unit cell =      1056.0130810469
   418 Broy./SMGL  0.30E+00  127.0     0.00415673     -3195.0913360429  1.85E-06
 SMEAGOL DEBUG| Number of electrons in the unit cell =      1056.0130895821
   419 Broy./SMGL  0.30E+00  126.1     0.00269347     -3195.0913379020 -1.86E-06
 SMEAGOL DEBUG| Number of electrons in the unit cell =      1056.0130892931
   420 Broy./SMGL  0.30E+00  126.7     0.00269392     -3195.0914149906 -7.71E-05
 SMEAGOL DEBUG| Number of electrons in the unit cell =      1056.0130617997
   421 Broy./SMGL  0.30E+00  126.6     0.00076265     -3195.0914014046  1.36E-05
 SMEAGOL DEBUG| Number of electrons in the unit cell =      1056.0130830471
   422 Broy./SMGL  0.30E+00  127.6     0.00076265     -3195.0911627563  2.39E-04
 SMEAGOL DEBUG| Number of electrons in the unit cell =      1056.0130829062
   423 Broy./SMGL  0.30E+00  125.1     0.00098031     -3195.0913533199 -1.91E-04
 SMEAGOL DEBUG| Number of electrons in the unit cell =      1056.0130829956
   424 Broy./SMGL  0.30E+00  126.3     0.00723445     -3195.0913524438  8.76E-07
 SMEAGOL DEBUG| Number of electrons in the unit cell =      1056.0130829619
   425 Broy./SMGL  0.30E+00  126.2     0.00723765     -3195.0913526909 -2.47E-07
 SMEAGOL DEBUG| Number of electrons in the unit cell =      1056.0130829281
   426 Broy./SMGL  0.30E+00  127.8     0.00076265     -3195.0913524663  2.25E-07
 SMEAGOL DEBUG| Number of electrons in the unit cell =      1056.0130829949
   427 Broy./SMGL  0.30E+00  126.6     0.00152410     -3195.0913524901 -2.38E-08
 SMEAGOL DEBUG| Number of electrons in the unit cell =      1056.0130827827
   428 Broy./SMGL  0.30E+00  128.0     0.00152415     -3195.0913526142 -1.24E-07
 SMEAGOL DEBUG| Number of electrons in the unit cell =      1056.0130830394
   429 Broy./SMGL  0.30E+00  126.3     0.00113436     -3195.0913520671  5.47E-07
 SMEAGOL DEBUG| Number of electrons in the unit cell =      1056.0130830355
   430 Broy./SMGL  0.30E+00  125.9     0.00113448     -3195.0913528969 -8.30E-07
 SMEAGOL DEBUG| Number of electrons in the unit cell =      1056.0130828067
   431 Broy./SMGL  0.30E+00  127.6     0.00076265     -3195.0913528152  8.17E-08
 SMEAGOL DEBUG| Number of electrons in the unit cell =      1056.0130833204
   432 Broy./SMGL  0.30E+00  126.1     0.00098028     -3195.0913523139  5.01E-07
 SMEAGOL DEBUG| Number of electrons in the unit cell =      1056.0130832165
   433 Broy./SMGL  0.30E+00  126.1     0.00098028     -3195.0913526779 -3.64E-07
 SMEAGOL DEBUG| Number of electrons in the unit cell =      1056.0130832236
   434 Broy./SMGL  0.30E+00  141.0     0.00152409     -3195.0913550743 -2.40E-06
 SMEAGOL DEBUG| Number of electrons in the unit cell =      1056.0130817653
   435 Broy./SMGL  0.30E+00  125.8     0.00804860     -3195.0913547005  3.74E-07
 SMEAGOL DEBUG| Number of electrons in the unit cell =      1056.0130817642
   436 Broy./SMGL  0.30E+00  147.8     0.00805000     -3195.0913457427  8.96E-06
 SMEAGOL DEBUG| Number of electrons in the unit cell =      1056.0130844506
   437 Broy./SMGL  0.30E+00  126.5     0.00116028     -3195.0913476754 -1.93E-06
 SMEAGOL DEBUG| Number of electrons in the unit cell =      1056.0130781665
   438 Broy./SMGL  0.30E+00  125.8     0.00116028     -3195.0913661106 -1.84E-05
 SMEAGOL DEBUG| Number of electrons in the unit cell =      1056.0130848576
   439 Broy./SMGL  0.30E+00  126.8     0.00152412     -3195.0913246799  4.14E-05
 SMEAGOL DEBUG| Number of electrons in the unit cell =      1056.0130811090
   440 Broy./SMGL  0.30E+00  126.2     0.00152412     -3195.0913596851 -3.50E-05
 SMEAGOL DEBUG| Number of electrons in the unit cell =      1056.0130841921
   441 Broy./SMGL  0.30E+00  127.5     0.00098029     -3195.0913477717  1.19E-05
 SMEAGOL DEBUG| Number of electrons in the unit cell =      1056.0130835702
