 DBCSR| CPU Multiplication driver                                           XSMM
 DBCSR| Multrec recursion limit                                              512
 DBCSR| Multiplication stack size                                           1000
 DBCSR| Maximum elements for images                                    UNLIMITED
 DBCSR| Multiplicative factor virtual images                                   1
 DBCSR| Use multiplication densification                                       T
 DBCSR| Multiplication size stacks                                             3
 DBCSR| Use memory pool for CPU allocation                                     F
 DBCSR| Number of 3D layers                                               SINGLE
 DBCSR| Use MPI memory allocation                                              F
 DBCSR| Use RMA algorithm                                                      F
 DBCSR| Use Communication thread                                               T
 DBCSR| Communication thread load                                             87
 DBCSR| MPI: My node id                                                        0
 DBCSR| MPI: Number of nodes                                                 512
 DBCSR| OMP: Current number of threads                                         1
 DBCSR| OMP: Max number of threads                                             1
 DBCSR| Split modifier for TAS multiplication algorithm                  1.0E+00


  **** **** ******  **  PROGRAM STARTED AT               2023-04-03 23:11:48.929
 ***** ** ***  *** **   PROGRAM STARTED ON                             nid004151
 **    ****   ******    PROGRAM STARTED BY                                cahart
 ***** **    ** ** **   PROGRAM PROCESS ID                                  2189
  **** **  *******  **  PROGRAM STARTED IN /mnt/lustre/a2fs-work2/work/e05/e05/c
                                           ahart/postdoc/transport/AuH2/cp2k-sme
                                           agol/archer_lda/geo_opt/bias/0.7

 CP2K| version string:                 CP2K version 2022.1 (Development Version)
 CP2K| source code revision number:                                  git:17dad85
 CP2K| cp2kflags: omp libint fftw3 libxc elpa parallel mpi3 scalapack xsmm plume
 CP2K|            d2 mkl
 CP2K| is freely available from                            https://www.cp2k.org/
 CP2K| Program compiled at                          Thu 30 Mar 21:01:20 BST 2023
 CP2K| Program compiled on                                                  ln03
 CP2K| Program compiled for                                                local
 CP2K| Data directory path      /work/y07/shared/apps/core/cp2k/cp2k-2022.1/data
 CP2K| Input file name                                                   4_V.inp

 GLOBAL| Force Environment number                                              1
 GLOBAL| Basis set file name                                        BASIS_MOLOPT
 GLOBAL| Potential file name                                      GTH_POTENTIALS
 GLOBAL| MM Potential file name                                     MM_POTENTIAL
 GLOBAL| Coordinate file name                                             em.xyz
 GLOBAL| Method name                                                        CP2K
 GLOBAL| Project name                                                          V
 GLOBAL| Run type                                                        GEO_OPT
 GLOBAL| FFT library                                                       FFTW3
 GLOBAL| Diagonalization library                                            ELPA
 GLOBAL| Minimum number of eigenvectors for ELPA usage                        16
 GLOBAL| Orthonormality check for eigenvectors                          DISABLED
 GLOBAL| Matrix multiplication library                                 ScaLAPACK
 GLOBAL| All-to-all communication in single precision                          F
 GLOBAL| FFTs using library dependent lengths                                  T
 GLOBAL| Grid backend                                                       AUTO
 GLOBAL| Global print level                                               MEDIUM
 GLOBAL| MPI I/O enabled                                                       T
 GLOBAL| Total number of message passing processes                           512
 GLOBAL| Number of threads for this process                                    1
 GLOBAL| This output is from process                                           0
 GLOBAL| Stack size for threads created by OpenMP (OMP_STACKSIZE)        default
 GLOBAL| CPU model name                          AMD EPYC 7742 64-Core Processor
 GLOBAL| CPUID                                                              1002

 MEMORY| system memory details [Kb]
 MEMORY|                        rank 0           min           max       average
 MEMORY| MemTotal            263528088     263528088     263528088     263528088
 MEMORY| MemFree             236679856     236679856     239643100     238860081
 MEMORY| Buffers                 30188         22132         30188         26640
 MEMORY| Cached                3156280        583300       3156280       1240163
 MEMORY| Slab                  1917588       1543332       1917588       1658665
 MEMORY| SReclaimable           119032        101000        119032        105610
 MEMORY| MemLikelyFree       239985356     239985356     240357352     240232494


 *** Fundamental physical constants (SI units) ***

 *** Literature: B. J. Mohr and B. N. Taylor,
 ***             CODATA recommended values of the fundamental physical
 ***             constants: 2006, Web Version 5.1
 ***             http://physics.nist.gov/constants

 Speed of light in vacuum [m/s]                             2.99792458000000E+08
 Magnetic constant or permeability of vacuum [N/A**2]       1.25663706143592E-06
 Electric constant or permittivity of vacuum [F/m]          8.85418781762039E-12
 Planck constant (h) [J*s]                                  6.62606896000000E-34
 Planck constant (h-bar) [J*s]                              1.05457162825177E-34
 Elementary charge [C]                                      1.60217648700000E-19
 Electron mass [kg]                                         9.10938215000000E-31
 Electron g factor [ ]                                     -2.00231930436220E+00
 Proton mass [kg]                                           1.67262163700000E-27
 Fine-structure constant                                    7.29735253760000E-03
 Rydberg constant [1/m]                                     1.09737315685270E+07
 Avogadro constant [1/mol]                                  6.02214179000000E+23
 Boltzmann constant [J/K]                                   1.38065040000000E-23
 Atomic mass unit [kg]                                      1.66053878200000E-27
 Bohr radius [m]                                            5.29177208590000E-11

 *** Conversion factors ***

 [u] -> [a.u.]                                              1.82288848426455E+03
 [Angstrom] -> [Bohr] = [a.u.]                              1.88972613288564E+00
 [a.u.] = [Bohr] -> [Angstrom]                              5.29177208590000E-01
 [a.u.] -> [s]                                              2.41888432650478E-17
 [a.u.] -> [fs]                                             2.41888432650478E-02
 [a.u.] -> [J]                                              4.35974393937059E-18
 [a.u.] -> [N]                                              8.23872205491840E-08
 [a.u.] -> [K]                                              3.15774647902944E+05
 [a.u.] -> [kJ/mol]                                         2.62549961709828E+03
 [a.u.] -> [kcal/mol]                                       6.27509468713739E+02
 [a.u.] -> [Pa]                                             2.94210107994716E+13
 [a.u.] -> [bar]                                            2.94210107994716E+08
 [a.u.] -> [atm]                                            2.90362800883016E+08
 [a.u.] -> [eV]                                             2.72113838565563E+01
 [a.u.] -> [Hz]                                             6.57968392072181E+15
 [a.u.] -> [1/cm] (wave numbers)                            2.19474631370540E+05
 [a.u./Bohr**2] -> [1/cm]                                   5.14048714338585E+03
 

 CELL_TOP| Volume [angstrom^3]:                                      3044.391638
 CELL_TOP| Vector a [angstrom     8.867     0.000     0.000   |a| =     8.867120
 CELL_TOP| Vector b [angstrom     0.000     8.867     0.000   |b| =     8.867120
 CELL_TOP| Vector c [angstrom     0.000     0.000    38.720   |c| =    38.720000
 CELL_TOP| Angle (b,c), alpha [degree]:                                90.000000
 CELL_TOP| Angle (a,c), beta  [degree]:                                90.000000
 CELL_TOP| Angle (a,b), gamma [degree]:                                90.000000
 CELL_TOP| Numerically orthorhombic:                                         YES
 CELL_TOP| Periodicity                                                       XYZ

 GENERATE|  Preliminary Number of Bonds generated:                             0
 GENERATE|  Achieved consistency in connectivity generation.

 CELL| Volume [angstrom^3]:                                          3044.391638
 CELL| Vector a [angstrom]:       8.867     0.000     0.000   |a| =     8.867120
 CELL| Vector b [angstrom]:       0.000     8.867     0.000   |b| =     8.867120
 CELL| Vector c [angstrom]:       0.000     0.000    38.720   |c| =    38.720000
 CELL| Angle (b,c), alpha [degree]:                                    90.000000
 CELL| Angle (a,c), beta  [degree]:                                    90.000000
 CELL| Angle (a,b), gamma [degree]:                                    90.000000
 CELL| Numerically orthorhombic:                                             YES
 CELL| Periodicity                                                           XYZ

 CELL_REF| Volume [angstrom^3]:                                      3044.391638
 CELL_REF| Vector a [angstrom     8.867     0.000     0.000   |a| =     8.867120
 CELL_REF| Vector b [angstrom     0.000     8.867     0.000   |b| =     8.867120
 CELL_REF| Vector c [angstrom     0.000     0.000    38.720   |c| =    38.720000
 CELL_REF| Angle (b,c), alpha [degree]:                                90.000000
 CELL_REF| Angle (a,c), beta  [degree]:                                90.000000
 CELL_REF| Angle (a,b), gamma [degree]:                                90.000000
 CELL_REF| Numerically orthorhombic:                                         YES
 CELL_REF| Periodicity                                                       XYZ

 *** WARNING in cryssym.F:165 :: Symmetry library SPGLIB not available ***


 *******************************************************************************
                                    Kpoints
 *******************************************************************************
 BRILLOUIN| K-point scheme                                        Monkhorst-Pack
 BRILLOUIN| K-Point grid                                             3    3    1
 BRILLOUIN| Accuracy in Symmetry determination                      0.100000E-07
 BRILLOUIN| K-Point point group symmetrization                               OFF
 BRILLOUIN| Wavefunction type                                            COMPLEX
 BRILLOUIN| Use full k-point grid     
 BRILLOUIN| List of Kpoints [2 Pi/Bohr]                                        9
 BRILLOUIN| Number           Weight            X              Y              Z
 BRILLOUIN|     1           0.11111       -0.33333       -0.33333        0.00000
 BRILLOUIN|     2           0.11111       -0.33333        0.00000        0.00000
 BRILLOUIN|     3           0.11111       -0.33333        0.33333        0.00000
 BRILLOUIN|     4           0.11111        0.00000       -0.33333        0.00000
 BRILLOUIN|     5           0.11111        0.00000        0.00000        0.00000
 BRILLOUIN|     6           0.11111        0.00000        0.33333        0.00000
 BRILLOUIN|     7           0.11111        0.33333       -0.33333        0.00000
 BRILLOUIN|     8           0.11111        0.33333        0.00000        0.00000
 BRILLOUIN|     9           0.11111        0.33333        0.33333        0.00000
 *******************************************************************************

 *******************************************************************************
 *******************************************************************************
 **                                                                           **
 **     #####                         ##              ##                      **
 **    ##   ##            ##          ##              ##                      **
 **   ##     ##                       ##            ######                    **
 **   ##     ##  ##   ##  ##   #####  ##  ##   ####   ##    #####    #####    **
 **   ##     ##  ##   ##  ##  ##      ## ##   ##      ##   ##   ##  ##   ##   **
 **   ##  ## ##  ##   ##  ##  ##      ####     ###    ##   ######   ######    **
 **    ##  ###   ##   ##  ##  ##      ## ##      ##   ##   ##       ##        **
 **     #######   #####   ##   #####  ##  ##  ####    ##    #####   ##        **
 **           ##                                                    ##        **
 **                                                                           **
 **                                                ... make the atoms dance   **
 **                                                                           **
 **            Copyright (C) by CP2K developers group (2000-2022)             **
 **                      J. Chem. Phys. 152, 194103 (2020)                    **
 **                                                                           **
 *******************************************************************************

 DFT| Spin restricted Kohn-Sham (RKS) calculation                            RKS
 DFT| Multiplicity                                                             2
 DFT| Number of spin states                                                    1
 DFT| Charge                                                                   0
 DFT| Self-interaction correction (SIC)                                       NO
 DFT| Cutoffs: density                                              1.000000E-10
 DFT|          gradient                                             1.000000E-10
 DFT|          tau                                                  1.000000E-10
 DFT|          cutoff_smoothing_range                               0.000000E+00
 DFT| XC density smoothing                                                  NONE
 DFT| XC derivatives                                                          PW

 FUNCTIONAL| PBE:
 FUNCTIONAL| J.P.Perdew, K.Burke, M.Ernzerhof, Phys. Rev. Letter, vol. 77, n 18,
 FUNCTIONAL|  pp. 3865-3868, (1996){spin unpolarized}                           


 QS| Method:                                                                 GPW
 QS| Density plane wave grid type                        NON-SPHERICAL FULLSPACE
 QS| Number of grid levels:                                                    4
 QS| Density cutoff [a.u.]:                                                300.0
 QS| Multi grid cutoff [a.u.]: 1) grid level                               300.0
 QS|                           2) grid level                               100.0
 QS|                           3) grid level                                33.3
 QS|                           4) grid level                                11.1
 QS| Grid level progression factor:                                          3.0
 QS| Relative density cutoff [a.u.]:                                        30.0
 QS| Interaction thresholds: eps_pgf_orb:                                1.0E-05
 QS|                         eps_filter_matrix:                          0.0E+00
 QS|                         eps_core_charge:                            1.0E-12
 QS|                         eps_rho_gspace:                             1.0E-10
 QS|                         eps_rho_rspace:                             1.0E-10
 QS|                         eps_gvg_rspace:                             1.0E-05
 QS|                         eps_ppl:                                    1.0E-02
 QS|                         eps_ppnl:                                   1.0E-07


 ATOMIC KIND INFORMATION

  1. Atomic kind: Au                                    Number of atoms:     111

     Orbital Basis Set                                         SZV-MOLOPT-SR-GTH

       Number of orbital shell sets:                                           1
       Number of orbital shells:                                               3
       Number of primitive Cartesian functions:                                5
       Number of Cartesian basis functions:                                   10
       Number of spherical basis functions:                                    9
       Norm type:                                                              2

       Normalised Cartesian orbitals:

                        Set   Shell   Orbital            Exponent    Coefficient

                          1       1    2s                2.950008       0.074626
                                                         1.563057      -0.007898
                                                         0.666664      -0.297688
                                                         0.251083       0.136809
                                                         0.081714       0.088198

                          1       2    3px               2.950008       0.148824
                                                         1.563057       0.025430
                                                         0.666664      -0.123003
                                                         0.251083       0.033648
                                                         0.081714       0.059008
                          1       2    3py               2.950008       0.148824
                                                         1.563057       0.025430
                                                         0.666664      -0.123003
                                                         0.251083       0.033648
                                                         0.081714       0.059008
                          1       2    3pz               2.950008       0.148824
                                                         1.563057       0.025430
                                                         0.666664      -0.123003
                                                         0.251083       0.033648
                                                         0.081714       0.059008

                          1       3    4dx2              2.950008      -0.139595
                                                         1.563057       1.319655
                                                         0.666664       0.377081
                                                         0.251083       0.046872
                                                         0.081714       0.001393
                          1       3    4dxy              2.950008      -0.241786
                                                         1.563057       2.285709
                                                         0.666664       0.653124
                                                         0.251083       0.081185
                                                         0.081714       0.002412
                          1       3    4dxz              2.950008      -0.241786
                                                         1.563057       2.285709
                                                         0.666664       0.653124
                                                         0.251083       0.081185
                                                         0.081714       0.002412
                          1       3    4dy2              2.950008      -0.139595
                                                         1.563057       1.319655
                                                         0.666664       0.377081
                                                         0.251083       0.046872
                                                         0.081714       0.001393
                          1       3    4dyz              2.950008      -0.241786
                                                         1.563057       2.285709
                                                         0.666664       0.653124
                                                         0.251083       0.081185
                                                         0.081714       0.002412
                          1       3    4dz2              2.950008      -0.139595
                                                         1.563057       1.319655
                                                         0.666664       0.377081
                                                         0.251083       0.046872
                                                         0.081714       0.001393

       Atomic covalent radius [Angstrom]:                                  1.340

       Atomic van der Waals radius [Angstrom]:                             1.660

     GTH Potential information for                                   GTH-PBE-q11

       Description:                       Goedecker-Teter-Hutter pseudopotential
                                           Goedecker et al., PRB 54, 1703 (1996)
                                          Hartwigsen et al., PRB 58, 3641 (1998)
                                                      Krack, TCA 114, 145 (2005)

       Gaussian exponent of the core charge distribution:               1.436369
       Electronic configuration (s p d ...):                           1   0  10

       Parameters of the local part of the GTH pseudopotential:

                          rloc        C1          C2          C3          C4
                        0.590000   10.517179

       Parameters of the non-local part of the GTH pseudopotential:

                   l      r(l)      h(i,j,l)

                   0    0.543847    5.786811   -2.250680
                                   -2.250680    2.905615
                   1    0.609173    4.284049   -4.071285
                                   -4.071285    4.817210
                   2    0.437309   -7.403281    3.010193
                                    3.010193   -3.413238

  2. Atomic kind: H                                     Number of atoms:       2

     Orbital Basis Set                                        DZVP-MOLOPT-SR-GTH

       Number of orbital shell sets:                                           1
       Number of orbital shells:                                               3
       Number of primitive Cartesian functions:                                5
       Number of Cartesian basis functions:                                    5
       Number of spherical basis functions:                                    5
       Norm type:                                                              2

       Normalised Cartesian orbitals:

                        Set   Shell   Orbital            Exponent    Coefficient

                          1       1    2s               10.068468      -0.133023
                                                         2.680223      -0.177618
                                                         0.791502      -0.258419
                                                         0.239116      -0.107525
                                                         0.082193      -0.014019

                          1       2    3s               10.068468       0.344673
                                                         2.680223       1.819821
                                                         0.791502      -0.999069
                                                         0.239116       0.017430
                                                         0.082193       0.082660

                          1       3    3px              10.068468       0.155326
                                                         2.680223       0.367157
                                                         0.791502       0.311480
                                                         0.239116       0.080105
                                                         0.082193       0.033440
                          1       3    3py              10.068468       0.155326
                                                         2.680223       0.367157
                                                         0.791502       0.311480
                                                         0.239116       0.080105
                                                         0.082193       0.033440
                          1       3    3pz              10.068468       0.155326
                                                         2.680223       0.367157
                                                         0.791502       0.311480
                                                         0.239116       0.080105
                                                         0.082193       0.033440

       Atomic covalent radius [Angstrom]:                                  0.320

       Atomic van der Waals radius [Angstrom]:                             1.090

     GTH Potential information for                                    GTH-PBE-q1

       Description:                       Goedecker-Teter-Hutter pseudopotential
                                           Goedecker et al., PRB 54, 1703 (1996)
                                          Hartwigsen et al., PRB 58, 3641 (1998)
                                                      Krack, TCA 114, 145 (2005)

       Gaussian exponent of the core charge distribution:              12.500000
       Electronic configuration (s p d ...):                                   1

       Parameters of the local part of the GTH pseudopotential:

                          rloc        C1          C2          C3          C4
                        0.200000   -4.178900    0.724463


 MOLECULE KIND INFORMATION


 All atoms are their own molecule, skipping detailed information


 TOTAL NUMBERS AND MAXIMUM NUMBERS

  Total number of            - Atomic kinds:                                   2
                             - Atoms:                                        113
                             - Shell sets:                                   113
                             - Shells:                                       339
                             - Primitive Cartesian functions:                565
                             - Cartesian basis functions:                   1120
                             - Spherical basis functions:                   1009

  Maximum angular momentum of- Orbital basis functions:                        2
                             - Local part of the GTH pseudopotential:          2
                             - Non-local part of the GTH pseudopotential:      4


 MODULE QUICKSTEP: ATOMIC COORDINATES IN ANGSTROM

   Atom Kind Element         X             Y             Z       Z(eff)     Mass
      1    1 Au   79      1.787000      1.281000      0.000000  11.0000 196.9666
      2    1 Au   79      0.309000      2.759000      2.090000  11.0000 196.9666
      3    1 Au   79      1.787000      1.281000      4.180000  11.0000 196.9666
      4    1 Au   79      0.309000      2.759000      6.270000  11.0000 196.9666
      5    1 Au   79      4.743000      1.281000      0.000000  11.0000 196.9666
      6    1 Au   79      3.265000      2.759000      2.090000  11.0000 196.9666
      7    1 Au   79      4.743000      1.281000      4.180000  11.0000 196.9666
      8    1 Au   79      3.265000      2.759000      6.270000  11.0000 196.9666
      9    1 Au   79      7.699000      1.281000      0.000000  11.0000 196.9666
     10    1 Au   79      6.221000      2.759000      2.090000  11.0000 196.9666
     11    1 Au   79      7.699000      1.281000      4.180000  11.0000 196.9666
     12    1 Au   79      6.221000      2.759000      6.270000  11.0000 196.9666
     13    1 Au   79      1.787000      4.236000      0.000000  11.0000 196.9666
     14    1 Au   79      0.309000      5.714000      2.090000  11.0000 196.9666
     15    1 Au   79      1.787000      4.236000      4.180000  11.0000 196.9666
     16    1 Au   79      0.309000      5.714000      6.270000  11.0000 196.9666
     17    1 Au   79      4.743000      4.236000      0.000000  11.0000 196.9666
     18    1 Au   79      3.265000      5.714000      2.090000  11.0000 196.9666
     19    1 Au   79      4.743000      4.236000      4.180000  11.0000 196.9666
     20    1 Au   79      3.265000      5.714000      6.270000  11.0000 196.9666
     21    1 Au   79      7.699000      4.236000      0.000000  11.0000 196.9666
     22    1 Au   79      6.221000      5.714000      2.090000  11.0000 196.9666
     23    1 Au   79      7.699000      4.236000      4.180000  11.0000 196.9666
     24    1 Au   79      6.221000      5.714000      6.270000  11.0000 196.9666
     25    1 Au   79      1.787000      7.192000      0.000000  11.0000 196.9666
     26    1 Au   79      0.309000      8.670000      2.090000  11.0000 196.9666
     27    1 Au   79      1.787000      7.192000      4.180000  11.0000 196.9666
     28    1 Au   79      0.309000      8.670000      6.270000  11.0000 196.9666
     29    1 Au   79      4.743000      7.192000      0.000000  11.0000 196.9666
     30    1 Au   79      3.265000      8.670000      2.090000  11.0000 196.9666
     31    1 Au   79      4.743000      7.192000      4.180000  11.0000 196.9666
     32    1 Au   79      3.265000      8.670000      6.270000  11.0000 196.9666
     33    1 Au   79      7.699000      7.192000      0.000000  11.0000 196.9666
     34    1 Au   79      6.221000      8.670000      2.090000  11.0000 196.9666
     35    1 Au   79      7.699000      7.192000      4.180000  11.0000 196.9666
     36    1 Au   79      6.221000      8.670000      6.270000  11.0000 196.9666
     37    1 Au   79      1.787000      1.281000      8.360000  11.0000 196.9666
     38    1 Au   79      1.787000      4.236000      8.360000  11.0000 196.9666
     39    1 Au   79      1.787000      7.192000      8.360000  11.0000 196.9666
     40    1 Au   79      4.743000      1.281000      8.360000  11.0000 196.9666
     41    1 Au   79      4.743000      4.236000      8.360000  11.0000 196.9666
     42    1 Au   79      4.743000      7.192000      8.360000  11.0000 196.9666
     43    1 Au   79      7.699000      1.281000      8.360000  11.0000 196.9666
     44    1 Au   79      7.699000      4.236000      8.360000  11.0000 196.9666
     45    1 Au   79      7.699000      7.192000      8.360000  11.0000 196.9666
     46    1 Au   79      0.309000      2.759000     10.450000  11.0000 196.9666
     47    1 Au   79      0.309000      5.714000     10.450000  11.0000 196.9666
     48    1 Au   79      0.309000      8.670000     10.450000  11.0000 196.9666
     49    1 Au   79      3.265000      2.759000     10.450000  11.0000 196.9666
     50    1 Au   79      3.265000      5.714000     10.450000  11.0000 196.9666
     51    1 Au   79      3.265000      8.670000     10.450000  11.0000 196.9666
     52    1 Au   79      6.221000      2.759000     10.450000  11.0000 196.9666
     53    1 Au   79      6.221000      5.714000     10.450000  11.0000 196.9666
     54    1 Au   79      6.221000      8.670000     10.450000  11.0000 196.9666
     55    1 Au   79      1.767000      4.215000     12.446000  11.0000 196.9666
     56    1 Au   79      1.766000      7.214000     12.446000  11.0000 196.9666
     57    1 Au   79      4.765000      4.213000     12.446000  11.0000 196.9666
     58    1 Au   79      4.767000      7.214000     12.445000  11.0000 196.9666
     59    1 Au   79      3.268000      5.717000     14.396000  11.0000 196.9666
     60    1 Au   79      3.267000      5.744000     17.050000  11.0000 196.9666
     61    2 H     1      3.254000      5.720000     18.927000   1.0000   1.0079
     62    2 H     1      3.260000      5.726000     19.796000   1.0000   1.0079
     63    1 Au   79      3.233000      5.712000     21.672000  11.0000 196.9666
     64    1 Au   79      3.264000      5.714000     24.326000  11.0000 196.9666
     65    1 Au   79      1.765000      4.213000     26.275000  11.0000 196.9666
     66    1 Au   79      1.765000      7.214000     26.274000  11.0000 196.9666
     67    1 Au   79      4.765000      4.214000     26.274000  11.0000 196.9666
     68    1 Au   79      4.765000      7.214000     26.275000  11.0000 196.9666
     69    1 Au   79      0.309000      2.759000     28.270000  11.0000 196.9666
     70    1 Au   79      0.309000      5.714000     28.270000  11.0000 196.9666
     71    1 Au   79      0.309000      8.670000     28.270000  11.0000 196.9666
     72    1 Au   79      3.265000      2.759000     28.270000  11.0000 196.9666
     73    1 Au   79      3.265000      5.714000     28.270000  11.0000 196.9666
     74    1 Au   79      3.265000      8.670000     28.270000  11.0000 196.9666
     75    1 Au   79      6.221000      2.759000     28.270000  11.0000 196.9666
     76    1 Au   79      6.221000      5.714000     28.270000  11.0000 196.9666
     77    1 Au   79      6.221000      8.670000     28.270000  11.0000 196.9666
     78    1 Au   79      1.787000      1.281000     30.360000  11.0000 196.9666
     79    1 Au   79      0.309000      2.759000     32.450000  11.0000 196.9666
     80    1 Au   79      1.787000      1.281000     34.540000  11.0000 196.9666
     81    1 Au   79      0.309000      2.759000     36.630000  11.0000 196.9666
     82    1 Au   79      4.743000      1.281000     30.360000  11.0000 196.9666
     83    1 Au   79      3.265000      2.759000     32.450000  11.0000 196.9666
     84    1 Au   79      4.743000      1.281000     34.540000  11.0000 196.9666
     85    1 Au   79      3.265000      2.759000     36.630000  11.0000 196.9666
     86    1 Au   79      7.699000      1.281000     30.360000  11.0000 196.9666
     87    1 Au   79      6.221000      2.759000     32.450000  11.0000 196.9666
     88    1 Au   79      7.699000      1.281000     34.540000  11.0000 196.9666
     89    1 Au   79      6.221000      2.759000     36.630000  11.0000 196.9666
     90    1 Au   79      1.787000      4.236000     30.360000  11.0000 196.9666
     91    1 Au   79      0.309000      5.714000     32.450000  11.0000 196.9666
     92    1 Au   79      1.787000      4.236000     34.540000  11.0000 196.9666
     93    1 Au   79      0.309000      5.714000     36.630000  11.0000 196.9666
     94    1 Au   79      4.743000      4.236000     30.360000  11.0000 196.9666
     95    1 Au   79      3.265000      5.714000     32.450000  11.0000 196.9666
     96    1 Au   79      4.743000      4.236000     34.540000  11.0000 196.9666
     97    1 Au   79      3.265000      5.714000     36.630000  11.0000 196.9666
     98    1 Au   79      7.699000      4.236000     30.360000  11.0000 196.9666
     99    1 Au   79      6.221000      5.714000     32.450000  11.0000 196.9666
    100    1 Au   79      7.699000      4.236000     34.540000  11.0000 196.9666
    101    1 Au   79      6.221000      5.714000     36.630000  11.0000 196.9666
    102    1 Au   79      1.787000      7.192000     30.360000  11.0000 196.9666
    103    1 Au   79      0.309000      8.670000     32.450000  11.0000 196.9666
    104    1 Au   79      1.787000      7.192000     34.540000  11.0000 196.9666
    105    1 Au   79      0.309000      8.670000     36.630000  11.0000 196.9666
    106    1 Au   79      4.743000      7.192000     30.360000  11.0000 196.9666
    107    1 Au   79      3.265000      8.670000     32.450000  11.0000 196.9666
    108    1 Au   79      4.743000      7.192000     34.540000  11.0000 196.9666
    109    1 Au   79      3.265000      8.670000     36.630000  11.0000 196.9666
    110    1 Au   79      7.699000      7.192000     30.360000  11.0000 196.9666
    111    1 Au   79      6.221000      8.670000     32.450000  11.0000 196.9666
    112    1 Au   79      7.699000      7.192000     34.540000  11.0000 196.9666
    113    1 Au   79      6.221000      8.670000     36.630000  11.0000 196.9666



 SCF PARAMETERS         Density guess:                                   RESTART
                        --------------------------------------------------------
                        max_scf:                                             500
                        max_scf_history:                                       0
                        max_diis:                                              4
                        --------------------------------------------------------
                        eps_scf:                                        1.00E-08
                        eps_scf_history:                                0.00E+00
                        eps_diis:                                       1.00E-01
                        eps_eigval:                                     1.00E-05
                        --------------------------------------------------------
                        level_shift [a.u.]:                             0.000000
                        added MOs                                       100    0
                        --------------------------------------------------------
                        Mixing method:                            BROYDEN_MIXING
                                                charge density mixing in g-space
                        --------------------------------------------------------
                        Smear method:                                FERMI_DIRAC
                        Electronic temperature [K]:                        300.0
                        Electronic temperature [a.u.]:                  9.50E-04
                        Accuracy threshold:                             1.00E-10
                        --------------------------------------------------------
                        No outer SCF

 PW_GRID| Information for grid number                                          1
 PW_GRID| Grid distributed over                                   512 processors
 PW_GRID| Real space group dimensions                                    16   32
 PW_GRID| the grid is blocked:                                               YES
 PW_GRID| Cutoff [a.u.]                                                    300.0
 PW_GRID| spherical cutoff:                                                   NO
 PW_GRID|   Bounds   1            -66      65                Points:         132
 PW_GRID|   Bounds   2            -66      65                Points:         132
 PW_GRID|   Bounds   3           -288     287                Points:         576
 PW_GRID| Volume element (a.u.^3)  0.2047E-02     Volume (a.u.^3)     20544.5734
 PW_GRID| Grid span                                                    FULLSPACE
 PW_GRID|   Distribution                         Average         Max         Min
 PW_GRID|   G-Vectors                            19602.0       21384       19008
 PW_GRID|   G-Rays                                 148.5         162         144
 PW_GRID|   Real Space Points                    19602.0       21384       19008

 PW_GRID| Information for grid number                                          2
 PW_GRID| Number of the reference grid                                         1
 PW_GRID| Grid distributed over                                   512 processors
 PW_GRID| Real space group dimensions                                    16   32
 PW_GRID| the grid is blocked:                                                NO
 PW_GRID| Cutoff [a.u.]                                                    100.0
 PW_GRID| spherical cutoff:                                                   NO
 PW_GRID|   Bounds   1            -37      37                Points:          75
 PW_GRID|   Bounds   2            -37      37                Points:          75
 PW_GRID|   Bounds   3           -165     164                Points:         330
 PW_GRID| Volume element (a.u.^3)  0.1107E-01     Volume (a.u.^3)     20544.5734
 PW_GRID| Grid span                                                    FULLSPACE
 PW_GRID|   Distribution                         Average         Max         Min
 PW_GRID|   G-Vectors                             3625.5       12150           0
 PW_GRID|   G-Rays                                  48.3         162           0
 PW_GRID|   Real Space Points                     3625.5        4950        2640

 PW_GRID| Information for grid number                                          3
 PW_GRID| Number of the reference grid                                         1
 PW_GRID| Grid distributed over                                   512 processors
 PW_GRID| Real space group dimensions                                    16   32
 PW_GRID| the grid is blocked:                                                NO
 PW_GRID| Cutoff [a.u.]                                                     33.3
 PW_GRID| spherical cutoff:                                                   NO
 PW_GRID|   Bounds   1            -22      21                Points:          44
 PW_GRID|   Bounds   2            -22      21                Points:          44
 PW_GRID|   Bounds   3            -96      95                Points:         192
 PW_GRID| Volume element (a.u.^3)  0.5527E-01     Volume (a.u.^3)     20544.5734
 PW_GRID| Grid span                                                    FULLSPACE
 PW_GRID|   Distribution                         Average         Max         Min
 PW_GRID|   G-Vectors                              726.0        7128           0
 PW_GRID|   G-Rays                                  16.5         162           0
 PW_GRID|   Real Space Points                      726.0        1152         384

 PW_GRID| Information for grid number                                          4
 PW_GRID| Number of the reference grid                                         1
 PW_GRID| Grid distributed over                                   512 processors
 PW_GRID| Real space group dimensions                                    16   32
 PW_GRID| the grid is blocked:                                                NO
 PW_GRID| Cutoff [a.u.]                                                     11.1
 PW_GRID| spherical cutoff:                                                   NO
 PW_GRID|   Bounds   1            -12      12                Points:          25
 PW_GRID|   Bounds   2            -12      12                Points:          25
 PW_GRID|   Bounds   3            -55      54                Points:         110
 PW_GRID| Volume element (a.u.^3)  0.2988         Volume (a.u.^3)     20544.5734
 PW_GRID| Grid span                                                    FULLSPACE
 PW_GRID|   Distribution                         Average         Max         Min
 PW_GRID|   G-Vectors                              134.3        3600           0
 PW_GRID|   G-Rays                                   5.4         144           0
 PW_GRID|   Real Space Points                      134.3         220           0

 POISSON| Solver                                                        PERIODIC
 POISSON| Periodicity                                                        XYZ

 RS_GRID| Information for grid number                                          1
 RS_GRID|   Bounds   1            -66      65                Points:         132
 RS_GRID|   Bounds   2            -66      65                Points:         132
 RS_GRID|   Bounds   3           -288     287                Points:         576
 RS_GRID| Real space distribution over                                  8 groups
 RS_GRID| Real space distribution along direction                              2
 RS_GRID| Border size                                                         35
 RS_GRID| Real space distribution over                                 64 groups
 RS_GRID| Real space distribution along direction                              3
 RS_GRID| Border size                                                         35
 RS_GRID|   Distribution                         Average         Max         Min
 RS_GRID|   Planes                                  86.5          87          86
 RS_GRID|   Distribution                         Average         Max         Min
 RS_GRID|   Planes                                  79.0          79          79

 RS_GRID| Information for grid number                                          2
 RS_GRID|   Bounds   1            -37      37                Points:          75
 RS_GRID|   Bounds   2            -37      37                Points:          75
 RS_GRID|   Bounds   3           -165     164                Points:         330
 RS_GRID| Real space distribution over                                  8 groups
 RS_GRID| Real space distribution along direction                              2
 RS_GRID| Border size                                                         24
 RS_GRID| Real space distribution over                                 64 groups
 RS_GRID| Real space distribution along direction                              3
 RS_GRID| Border size                                                         24
 RS_GRID|   Distribution                         Average         Max         Min
 RS_GRID|   Planes                                  57.4          58          57
 RS_GRID|   Distribution                         Average         Max         Min
 RS_GRID|   Planes                                  53.2          54          53

 RS_GRID| Information for grid number                                          3
 RS_GRID|   Bounds   1            -22      21                Points:          44
 RS_GRID|   Bounds   2            -22      21                Points:          44
 RS_GRID|   Bounds   3            -96      95                Points:         192
 RS_GRID| Real space fully replicated
 RS_GRID| Group size                                                           1

 RS_GRID| Information for grid number                                          4
 RS_GRID|   Bounds   1            -12      12                Points:          25
 RS_GRID|   Bounds   2            -12      12                Points:          25
 RS_GRID|   Bounds   3            -55      54                Points:         110
 RS_GRID| Real space fully replicated
 RS_GRID| Group size                                                           1

 KPOINTS| Number of kpoint groups                                              1
 KPOINTS| Size of each kpoint group                                          512
 KPOINTS| Number of kpoints per group                                          9

 BFGS| Use rational function optimization for step estimation:                NO
 BFGS| Use model Hessian for initial guess:                                  YES
 BFGS| Restart Hessian:                                                       NO
 BFGS| Trust radius:                                                       0.472

 *******************************************************************************
 ***                     STARTING GEOMETRY OPTIMIZATION                      ***
 ***                                   BFGS                                  ***
 *******************************************************************************

 Number of electrons:                                                       1223
 Number of occupied orbitals:                                                612
 Number of molecular orbitals:                                               712

 Number of orbital functions:                                               1009
 Number of independent orbital functions:                                   1009

 Extrapolation method: initial_guess


 SCF WAVEFUNCTION OPTIMIZATION

  Step     Update method      Time    Convergence         Total energy    Change
  ------------------------------------------------------------------------------
 SMEAGOL DEBUG| Number of electrons in the unit cell =      1223.0000000003
     1 NoMix/SMGL  0.30E+00  193.1     1.68885958     -3690.6583110547 -3.69E+03
 SMEAGOL DEBUG| Number of electrons in the unit cell =      1223.5021249628
     2 Broy./SMGL  0.30E+00   84.1     0.21855259     -3688.1740451930  2.48E+00
 SMEAGOL DEBUG| Number of electrons in the unit cell =      1222.9790605635
     3 Broy./SMGL  0.30E+00   86.7     0.22020246     -3696.1200882992 -7.95E+00
 SMEAGOL DEBUG| Number of electrons in the unit cell =      1223.1323110024
     4 Broy./SMGL  0.30E+00   81.9     0.06808035     -3690.6319354681  5.49E+00
 SMEAGOL DEBUG| Number of electrons in the unit cell =      1223.2511974334
     5 Broy./SMGL  0.30E+00   85.4     0.00879645     -3690.2253575189  4.07E-01
 SMEAGOL DEBUG| Number of electrons in the unit cell =      1223.1692090655
     6 Broy./SMGL  0.30E+00   87.1     0.00442980     -3690.9496652539 -7.24E-01
 SMEAGOL DEBUG| Number of electrons in the unit cell =      1223.1257084845
     7 Broy./SMGL  0.30E+00   83.1     0.00659214     -3690.6574458712  2.92E-01
 SMEAGOL DEBUG| Number of electrons in the unit cell =      1223.0288117646
     8 Broy./SMGL  0.30E+00   84.5     0.00289987     -3690.9081922898 -2.51E-01
 SMEAGOL DEBUG| Number of electrons in the unit cell =      1222.9666235362
     9 Broy./SMGL  0.30E+00   83.8     0.00282731     -3690.7371383884  1.71E-01
 SMEAGOL DEBUG| Number of electrons in the unit cell =      1222.9496386194
    10 Broy./SMGL  0.30E+00   90.2     0.00660378     -3690.6399297631  9.72E-02
 SMEAGOL DEBUG| Number of electrons in the unit cell =      1222.9513629702
    11 Broy./SMGL  0.30E+00   87.8     0.00269341     -3690.6142092639  2.57E-02
 SMEAGOL DEBUG| Number of electrons in the unit cell =      1222.9633921144
    12 Broy./SMGL  0.30E+00  123.2     0.00269558     -3690.6176178958 -3.41E-03
 SMEAGOL DEBUG| Number of electrons in the unit cell =      1222.9651609136
    13 Broy./SMGL  0.30E+00   89.5     0.00268972     -3690.6363958854 -1.88E-02
 SMEAGOL DEBUG| Number of electrons in the unit cell =      1222.9637076858
    14 Broy./SMGL  0.30E+00  112.3     0.00268725     -3690.6369410322 -5.45E-04
 SMEAGOL DEBUG| Number of electrons in the unit cell =      1222.9610699380
    15 Broy./SMGL  0.30E+00   88.9     0.00268493     -3690.6375362298 -5.95E-04
 SMEAGOL DEBUG| Number of electrons in the unit cell =      1222.9604592974
    16 Broy./SMGL  0.30E+00  102.5     0.00091214     -3690.6371464252  3.90E-04
 SMEAGOL DEBUG| Number of electrons in the unit cell =      1222.9598276262
    17 Broy./SMGL  0.30E+00   85.9     0.00200475     -3690.6383098679 -1.16E-03
 SMEAGOL DEBUG| Number of electrons in the unit cell =      1222.9603581921
    18 Broy./SMGL  0.30E+00   84.4     0.00200479     -3690.6379766442  3.33E-04
 SMEAGOL DEBUG| Number of electrons in the unit cell =      1222.9605123375
    19 Broy./SMGL  0.30E+00   87.1     0.00031421     -3690.6386634955 -6.87E-04
 SMEAGOL DEBUG| Number of electrons in the unit cell =      1222.9605834526
    20 Broy./SMGL  0.30E+00   89.0     0.00023606     -3690.6388021922 -1.39E-04
 SMEAGOL DEBUG| Number of electrons in the unit cell =      1222.9606930915
    21 Broy./SMGL  0.30E+00   87.3     0.00082142     -3690.6384331769  3.69E-04
 SMEAGOL DEBUG| Number of electrons in the unit cell =      1222.9607374183
    22 Broy./SMGL  0.30E+00   95.1     0.00082141     -3690.6382536316  1.80E-04
 SMEAGOL DEBUG| Number of electrons in the unit cell =      1222.9608088528
    23 Broy./SMGL  0.30E+00   88.3     0.00031420     -3690.6382174859  3.61E-05
 SMEAGOL DEBUG| Number of electrons in the unit cell =      1222.9608482340
    24 Broy./SMGL  0.30E+00   91.1     0.00000850     -3690.6382748989 -5.74E-05
 SMEAGOL DEBUG| Number of electrons in the unit cell =      1222.9609038962
    25 Broy./SMGL  0.30E+00   89.9     0.00000141     -3690.6382779493 -3.05E-06
 SMEAGOL DEBUG| Number of electrons in the unit cell =      1222.9608954195
    26 Broy./SMGL  0.30E+00   89.3     0.00000197     -3690.6383029435 -2.50E-05
 SMEAGOL DEBUG| Number of electrons in the unit cell =      1222.9608885490
    27 Broy./SMGL  0.30E+00   90.3     0.00000244     -3690.6382692126  3.37E-05
 SMEAGOL DEBUG| Number of electrons in the unit cell =      1222.9608818551
    28 Broy./SMGL  0.30E+00   93.7     0.00000098     -3690.6382660721  3.14E-06
 SMEAGOL DEBUG| Number of electrons in the unit cell =      1222.9608792259
    29 Broy./SMGL  0.30E+00   86.5     0.00000017     -3690.6382678782 -1.81E-06
 SMEAGOL DEBUG| Number of electrons in the unit cell =      1222.9608795172
    30 Broy./SMGL  0.30E+00   82.4     0.00000025     -3690.6382684869 -6.09E-07
 SMEAGOL DEBUG| Number of electrons in the unit cell =      1222.9608818361
    31 Broy./SMGL  0.30E+00   91.0     0.00000021     -3690.6382709352 -2.45E-06
 SMEAGOL DEBUG| Number of electrons in the unit cell =      1222.9608798692
    32 Broy./SMGL  0.30E+00   90.2     0.00000012     -3690.6382739213 -2.99E-06
 SMEAGOL DEBUG| Number of electrons in the unit cell =      1222.9608775093
    33 Broy./SMGL  0.30E+00   98.8     0.00000008     -3690.6382705666  3.35E-06
 SMEAGOL DEBUG| Number of electrons in the unit cell =      1222.9608763562
    34 Broy./SMGL  0.30E+00   98.2     0.00000007     -3690.6382680016  2.57E-06
 SMEAGOL DEBUG| Number of electrons in the unit cell =      1222.9608753129
    35 Broy./SMGL  0.30E+00   86.2     0.00000011     -3690.6382687589 -7.57E-07
 SMEAGOL DEBUG| Number of electrons in the unit cell =      1222.9608754343
    36 Broy./SMGL  0.30E+00   91.9     0.00000001     -3690.6382695834 -8.25E-07
 SMEAGOL DEBUG| Number of electrons in the unit cell =      1222.9608758664
    37 Broy./SMGL  0.30E+00   86.9     0.00000002     -3690.6382696478 -6.44E-08
 SMEAGOL DEBUG| Number of electrons in the unit cell =      1222.9608759028
    38 Broy./SMGL  0.30E+00   87.8     0.00000003     -3690.6382701318 -4.84E-07
 SMEAGOL DEBUG| Number of electrons in the unit cell =      1222.9608760353
    39 Broy./SMGL  0.30E+00   90.6     0.00000002     -3690.6382698256  3.06E-07
 SMEAGOL DEBUG| Number of electrons in the unit cell =      1222.9608760937
    40 Broy./SMGL  0.30E+00   84.6     9.1009E-09     -3690.6382696219  2.04E-07

  *** SCF run converged in    40 steps ***


  Electronic density on regular grids:      -1222.9608760937        0.0391239063
  Core density on regular grids:             1222.9999997993       -0.0000002007
  Total charge density on r-space grids:        0.0391237056
  Total charge density g-space grids:           0.0391237056

  Overlap energy of the core charge distribution:               0.00000048998631
  Self energy of the core charge distribution:              -6424.54153828207382
  Core Hamiltonian energy:                                   2053.18800993799005
  Hartree energy:                                            1264.24517934908226
  Exchange-correlation energy:                               -583.52992111684921
  Electronic entropic energy:                                   0.00000000000000
  Fermi energy:                                                 0.00000000000000

  Total energy:                                             -3690.63826962186340

 The electron density is written in cube file format to the file:

 V-ELECTRON_DENSITY-1_0.cube

 !-----------------------------------------------------------------------------!
                     Mulliken Population Analysis

 #  Atom  Element  Kind  Atomic population                           Net charge
       1     Au       1         11.000099                             -0.000099
       2     Au       1         10.999271                              0.000729
       3     Au       1         10.986948                              0.013052
       4     Au       1         10.985519                              0.014481
       5     Au       1         11.000161                             -0.000161
       6     Au       1         10.999531                              0.000469
       7     Au       1         10.987002                              0.012998
       8     Au       1         10.978644                              0.021356
       9     Au       1         10.999916                              0.000084
      10     Au       1         10.999456                              0.000544
      11     Au       1         10.986716                              0.013284
      12     Au       1         10.985711                              0.014289
      13     Au       1         10.999858                              0.000142
      14     Au       1         10.999484                              0.000516
      15     Au       1         10.987416                              0.012584
      16     Au       1         10.978619                              0.021381
      17     Au       1         10.999920                              0.000080
      18     Au       1         10.999797                              0.000203
      19     Au       1         10.987482                              0.012518
      20     Au       1         10.975288                              0.024712
      21     Au       1         10.999675                              0.000325
      22     Au       1         10.999668                              0.000332
      23     Au       1         10.986523                              0.013477
      24     Au       1         10.978802                              0.021198
      25     Au       1         11.000143                             -0.000143
      26     Au       1         10.999577                              0.000423
      27     Au       1         10.987705                              0.012295
      28     Au       1         10.985861                              0.014139
      29     Au       1         11.000204                             -0.000204
      30     Au       1         10.999836                              0.000164
      31     Au       1         10.987772                              0.012228
      32     Au       1         10.979032                              0.020968
      33     Au       1         10.999960                              0.000040
      34     Au       1         10.999761                              0.000239
      35     Au       1         10.986780                              0.013220
      36     Au       1         10.986069                              0.013931
      37     Au       1         10.988650                              0.011350
      38     Au       1         10.948676                              0.051324
      39     Au       1         10.949140                              0.050860
      40     Au       1         10.988894                              0.011106
      41     Au       1         10.948915                              0.051085
      42     Au       1         10.949374                              0.050626
      43     Au       1         11.021936                             -0.021936
      44     Au       1         10.988180                              0.011820
      45     Au       1         10.988604                              0.011396
      46     Au       1         11.080766                             -0.080766
      47     Au       1         11.028834                             -0.028834
      48     Au       1         11.080955                             -0.080955
      49     Au       1         11.028893                             -0.028893
      50     Au       1         10.888308                              0.111692
      51     Au       1         11.029202                             -0.029202
      52     Au       1         11.080864                             -0.080864
      53     Au       1         11.028780                             -0.028780
      54     Au       1         11.080950                             -0.080950
      55     Au       1         11.005766                             -0.005766
      56     Au       1         11.005119                             -0.005119
      57     Au       1         11.005497                             -0.005497
      58     Au       1         11.004888                             -0.004888
      59     Au       1         11.129410                             -0.129410
      60     Au       1         11.091295                             -0.091295
      61     H        2          0.948401                              0.051599
      62     H        2          0.953938                              0.046062
      63     Au       1         11.078296                             -0.078296
      64     Au       1         11.162696                             -0.162696
      65     Au       1         11.006008                             -0.006008
      66     Au       1         11.006080                             -0.006080
      67     Au       1         11.006482                             -0.006482
      68     Au       1         11.006538                             -0.006538
      69     Au       1         11.029124                             -0.029124
      70     Au       1         10.986847                              0.013153
      71     Au       1         11.029473                             -0.029473
      72     Au       1         10.987064                              0.012936
      73     Au       1         10.865727                              0.134273
      74     Au       1         10.987405                              0.012595
      75     Au       1         11.029402                             -0.029402
      76     Au       1         10.987037                              0.012963
      77     Au       1         11.029553                             -0.029553
      78     Au       1         11.001786                             -0.001786
      79     Au       1         10.988875                              0.011125
      80     Au       1         10.999787                              0.000213
      81     Au       1         10.999683                              0.000317
      82     Au       1         11.001930                             -0.001930
      83     Au       1         10.988203                              0.011797
      84     Au       1         10.999851                              0.000149
      85     Au       1         10.999930                              0.000070
      86     Au       1         11.026507                             -0.026507
      87     Au       1         10.989002                              0.010998
      88     Au       1         10.999589                              0.000411
      89     Au       1         10.999867                              0.000133
      90     Au       1         10.968053                              0.031947
      91     Au       1         10.988152                              0.011848
      92     Au       1         10.999551                              0.000449
      93     Au       1         10.999883                              0.000117
      94     Au       1         10.968106                              0.031894
      95     Au       1         10.991775                              0.008225
      96     Au       1         10.999613                              0.000387
      97     Au       1         11.000130                             -0.000130
      98     Au       1         11.001391                             -0.001391
      99     Au       1         10.988329                              0.011671
     100     Au       1         10.999363                              0.000637
     101     Au       1         11.000066                             -0.000066
     102     Au       1         10.968368                              0.031632
     103     Au       1         10.989176                              0.010824
     104     Au       1         10.999837                              0.000163
     105     Au       1         10.999986                              0.000014
     106     Au       1         10.968433                              0.031567
     107     Au       1         10.988508                              0.011492
     108     Au       1         10.999899                              0.000101
     109     Au       1         11.000233                             -0.000233
     110     Au       1         11.001713                             -0.001713
     111     Au       1         10.989307                              0.010693
     112     Au       1         10.999649                              0.000351
     113     Au       1         11.000170                             -0.000170
 # Total charge                           1222.960876                  0.039124

 !-----------------------------------------------------------------------------!

 !-----------------------------------------------------------------------------!
                           Hirshfeld Charges

  #Atom  Element  Kind  Ref Charge     Population                    Net charge
      1       Au     1      11.000         11.000                        -0.000
      2       Au     1      11.000         11.000                         0.000
      3       Au     1      11.000         10.999                         0.001
      4       Au     1      11.000         10.989                         0.011
      5       Au     1      11.000         11.000                        -0.000
      6       Au     1      11.000         11.000                         0.000
      7       Au     1      11.000         10.999                         0.001
      8       Au     1      11.000         10.992                         0.008
      9       Au     1      11.000         11.000                         0.000
     10       Au     1      11.000         11.000                         0.000
     11       Au     1      11.000         10.999                         0.001
     12       Au     1      11.000         10.989                         0.011
     13       Au     1      11.000         11.000                         0.000
     14       Au     1      11.000         11.000                         0.000
     15       Au     1      11.000         10.999                         0.001
     16       Au     1      11.000         10.992                         0.008
     17       Au     1      11.000         11.000                         0.000
     18       Au     1      11.000         11.000                        -0.000
     19       Au     1      11.000         10.999                         0.001
     20       Au     1      11.000         10.989                         0.011
     21       Au     1      11.000         11.000                         0.000
     22       Au     1      11.000         11.000                        -0.000
     23       Au     1      11.000         10.999                         0.001
     24       Au     1      11.000         10.992                         0.008
     25       Au     1      11.000         11.000                        -0.000
     26       Au     1      11.000         11.000                         0.000
     27       Au     1      11.000         10.999                         0.001
     28       Au     1      11.000         10.989                         0.011
     29       Au     1      11.000         11.000                        -0.000
     30       Au     1      11.000         11.000                        -0.000
     31       Au     1      11.000         10.999                         0.001
     32       Au     1      11.000         10.992                         0.008
     33       Au     1      11.000         11.000                         0.000
     34       Au     1      11.000         11.000                        -0.000
     35       Au     1      11.000         10.999                         0.001
     36       Au     1      11.000         10.989                         0.011
     37       Au     1      11.000         10.996                         0.004
     38       Au     1      11.000         10.997                         0.003
     39       Au     1      11.000         10.997                         0.003
     40       Au     1      11.000         10.996                         0.004
     41       Au     1      11.000         10.997                         0.003
     42       Au     1      11.000         10.998                         0.002
     43       Au     1      11.000         10.996                         0.004
     44       Au     1      11.000         10.996                         0.004
     45       Au     1      11.000         10.996                         0.004
     46       Au     1      11.000         11.032                        -0.032
     47       Au     1      11.000         11.012                        -0.012
     48       Au     1      11.000         11.032                        -0.032
     49       Au     1      11.000         11.012                        -0.012
     50       Au     1      11.000         10.972                         0.028
     51       Au     1      11.000         11.012                        -0.012
     52       Au     1      11.000         11.032                        -0.032
     53       Au     1      11.000         11.012                        -0.012
     54       Au     1      11.000         11.032                        -0.032
     55       Au     1      11.000         10.978                         0.022
     56       Au     1      11.000         10.978                         0.022
     57       Au     1      11.000         10.978                         0.022
     58       Au     1      11.000         10.978                         0.022
     59       Au     1      11.000         11.019                        -0.019
     60       Au     1      11.000         11.023                        -0.023
     61       H      2       1.000          1.037                        -0.037
     62       H      2       1.000          1.044                        -0.044
     63       Au     1      11.000         11.000                        -0.000
     64       Au     1      11.000         11.041                        -0.041
     65       Au     1      11.000         10.974                         0.026
     66       Au     1      11.000         10.974                         0.026
     67       Au     1      11.000         10.974                         0.026
     68       Au     1      11.000         10.974                         0.026
     69       Au     1      11.000         11.031                        -0.031
     70       Au     1      11.000         11.013                        -0.013
     71       Au     1      11.000         11.031                        -0.031
     72       Au     1      11.000         11.013                        -0.013
     73       Au     1      11.000         10.976                         0.024
     74       Au     1      11.000         11.013                        -0.013
     75       Au     1      11.000         11.031                        -0.031
     76       Au     1      11.000         11.013                        -0.013
     77       Au     1      11.000         11.031                        -0.031
     78       Au     1      11.000         10.980                         0.020
     79       Au     1      11.000         10.999                         0.001
     80       Au     1      11.000         11.000                        -0.000
     81       Au     1      11.000         11.000                         0.000
     82       Au     1      11.000         10.980                         0.020
     83       Au     1      11.000         10.998                         0.002
     84       Au     1      11.000         11.000                        -0.000
     85       Au     1      11.000         11.000                         0.000
     86       Au     1      11.000         10.984                         0.016
     87       Au     1      11.000         10.999                         0.001
     88       Au     1      11.000         11.000                         0.000
     89       Au     1      11.000         11.000                         0.000
     90       Au     1      11.000         10.983                         0.017
     91       Au     1      11.000         10.998                         0.002
     92       Au     1      11.000         11.000                         0.000
     93       Au     1      11.000         11.000                         0.000
     94       Au     1      11.000         10.983                         0.017
     95       Au     1      11.000         10.998                         0.002
     96       Au     1      11.000         11.000                         0.000
     97       Au     1      11.000         11.000                        -0.000
     98       Au     1      11.000         10.980                         0.020
     99       Au     1      11.000         10.998                         0.002
    100       Au     1      11.000         11.000                         0.000
    101       Au     1      11.000         11.000                        -0.000
    102       Au     1      11.000         10.983                         0.017
    103       Au     1      11.000         10.999                         0.001
    104       Au     1      11.000         11.000                        -0.000
    105       Au     1      11.000         11.000                         0.000
    106       Au     1      11.000         10.983                         0.017
    107       Au     1      11.000         10.998                         0.002
    108       Au     1      11.000         11.000                        -0.000
    109       Au     1      11.000         11.000                        -0.000
    110       Au     1      11.000         10.980                         0.020
    111       Au     1      11.000         10.999                         0.001
    112       Au     1      11.000         11.000                         0.000
    113       Au     1      11.000         11.000                        -0.000

  Total Charge                                                            0.039
 !-----------------------------------------------------------------------------!
 Calculating transmission coefficient
 SMEAGOL DEBUG| Number of electrons in the unit cell =      1222.9608762140

 ENERGY| Total FORCE_EVAL ( QS ) energy [a.u.]:            -3690.638269740745727

 ATOMIC FORCES in [a.u.]

 # Atom   Kind   Element          X              Y              Z
      1      1      Au          0.00000000     0.00000000     0.00000000
      2      1      Au          0.00000000     0.00000000     0.00000000
      3      1      Au          0.00000000     0.00000000     0.00000000
      4      1      Au          0.00000000     0.00000000     0.00000000
      5      1      Au          0.00000000     0.00000000     0.00000000
      6      1      Au          0.00000000     0.00000000     0.00000000
      7      1      Au          0.00000000     0.00000000     0.00000000
      8      1      Au          0.00000000     0.00000000     0.00000000
      9      1      Au          0.00000000     0.00000000     0.00000000
     10      1      Au          0.00000000     0.00000000     0.00000000
     11      1      Au          0.00000000     0.00000000     0.00000000
     12      1      Au          0.00000000     0.00000000     0.00000000
     13      1      Au          0.00000000     0.00000000     0.00000000
     14      1      Au          0.00000000     0.00000000     0.00000000
     15      1      Au          0.00000000     0.00000000     0.00000000
     16      1      Au          0.00000000     0.00000000     0.00000000
     17      1      Au          0.00000000     0.00000000     0.00000000
     18      1      Au          0.00000000     0.00000000     0.00000000
     19      1      Au          0.00000000     0.00000000     0.00000000
     20      1      Au          0.00000000     0.00000000     0.00000000
     21      1      Au          0.00000000     0.00000000     0.00000000
     22      1      Au          0.00000000     0.00000000     0.00000000
     23      1      Au          0.00000000     0.00000000     0.00000000
     24      1      Au          0.00000000     0.00000000     0.00000000
     25      1      Au          0.00000000     0.00000000     0.00000000
     26      1      Au          0.00000000     0.00000000     0.00000000
     27      1      Au          0.00000000     0.00000000     0.00000000
     28      1      Au          0.00000000     0.00000000     0.00000000
     29      1      Au          0.00000000     0.00000000     0.00000000
     30      1      Au          0.00000000     0.00000000     0.00000000
     31      1      Au          0.00000000     0.00000000     0.00000000
     32      1      Au          0.00000000     0.00000000     0.00000000
     33      1      Au          0.00000000     0.00000000     0.00000000
     34      1      Au          0.00000000     0.00000000     0.00000000
     35      1      Au          0.00000000     0.00000000     0.00000000
     36      1      Au          0.00000000     0.00000000     0.00000000
     37      1      Au          0.00000000     0.00000000     0.00000000
     38      1      Au          0.00000000     0.00000000     0.00000000
     39      1      Au          0.00000000     0.00000000     0.00000000
     40      1      Au          0.00000000     0.00000000     0.00000000
     41      1      Au          0.00000000     0.00000000     0.00000000
     42      1      Au          0.00000000     0.00000000     0.00000000
     43      1      Au          0.00000000     0.00000000     0.00000000
     44      1      Au          0.00000000     0.00000000     0.00000000
     45      1      Au          0.00000000     0.00000000     0.00000000
     46      1      Au          0.00000000     0.00000000     0.00000000
     47      1      Au          0.00000000     0.00000000     0.00000000
     48      1      Au          0.00000000     0.00000000     0.00000000
     49      1      Au          0.00000000     0.00000000     0.00000000
     50      1      Au          0.00000000     0.00000000     0.00000000
     51      1      Au          0.00000000     0.00000000     0.00000000
     52      1      Au          0.00000000     0.00000000     0.00000000
     53      1      Au          0.00000000     0.00000000     0.00000000
     54      1      Au          0.00000000     0.00000000     0.00000000
     55      1      Au          0.00000000     0.00000000     0.00000000
     56      1      Au          0.00000000     0.00000000     0.00000000
     57      1      Au          0.00000000     0.00000000     0.00000000
     58      1      Au          0.00000000     0.00000000     0.00000000
     59      1      Au         -0.00004770    -0.00017913    -0.00264774
     60      1      Au          0.00003293     0.00016116     0.00784320
     61      2      H          -0.00002674    -0.00005736     0.00180626
     62      2      H          -0.00001753    -0.00000473    -0.00208401
     63      1      Au          0.00002287     0.00001231    -0.00574674
     64      1      Au         -0.00001655    -0.00001917    -0.00234783
     65      1      Au          0.00000000     0.00000000     0.00000000
     66      1      Au          0.00000000     0.00000000     0.00000000
     67      1      Au          0.00000000     0.00000000     0.00000000
     68      1      Au          0.00000000     0.00000000     0.00000000
     69      1      Au          0.00000000     0.00000000     0.00000000
     70      1      Au          0.00000000     0.00000000     0.00000000
[...]
     25      1      Au          0.00000000     0.00000000     0.00000000
     26      1      Au          0.00000000     0.00000000     0.00000000
     27      1      Au          0.00000000     0.00000000     0.00000000
     28      1      Au          0.00000000     0.00000000     0.00000000
     29      1      Au          0.00000000     0.00000000     0.00000000
     30      1      Au          0.00000000     0.00000000     0.00000000
     31      1      Au          0.00000000     0.00000000     0.00000000
     32      1      Au          0.00000000     0.00000000     0.00000000
     33      1      Au          0.00000000     0.00000000     0.00000000
     34      1      Au          0.00000000     0.00000000     0.00000000
     35      1      Au          0.00000000     0.00000000     0.00000000
     36      1      Au          0.00000000     0.00000000     0.00000000
     37      1      Au          0.00000000     0.00000000     0.00000000
     38      1      Au          0.00000000     0.00000000     0.00000000
     39      1      Au          0.00000000     0.00000000     0.00000000
     40      1      Au          0.00000000     0.00000000     0.00000000
     41      1      Au          0.00000000     0.00000000     0.00000000
     42      1      Au          0.00000000     0.00000000     0.00000000
     43      1      Au          0.00000000     0.00000000     0.00000000
     44      1      Au          0.00000000     0.00000000     0.00000000
     45      1      Au          0.00000000     0.00000000     0.00000000
     46      1      Au          0.00000000     0.00000000     0.00000000
     47      1      Au          0.00000000     0.00000000     0.00000000
     48      1      Au          0.00000000     0.00000000     0.00000000
     49      1      Au          0.00000000     0.00000000     0.00000000
     50      1      Au          0.00000000     0.00000000     0.00000000
     51      1      Au          0.00000000     0.00000000     0.00000000
     52      1      Au          0.00000000     0.00000000     0.00000000
     53      1      Au          0.00000000     0.00000000     0.00000000
     54      1      Au          0.00000000     0.00000000     0.00000000
     55      1      Au          0.00000000     0.00000000     0.00000000
     56      1      Au          0.00000000     0.00000000     0.00000000
     57      1      Au          0.00000000     0.00000000     0.00000000
     58      1      Au          0.00000000     0.00000000     0.00000000
     59      1      Au         -0.00000332    -0.00002188     0.00043678
     60      1      Au          0.00001329     0.00001417    -0.00009252
     61      2      H           0.00027822     0.00065917     0.00031591
     62      2      H          -0.00005386    -0.00010171    -0.00154023
     63      1      Au         -0.00002462    -0.00017529    -0.00003706
     64      1      Au         -0.00005515    -0.00005655    -0.00053298
     65      1      Au          0.00000000     0.00000000     0.00000000
     66      1      Au          0.00000000     0.00000000     0.00000000
     67      1      Au          0.00000000     0.00000000     0.00000000
     68      1      Au          0.00000000     0.00000000     0.00000000
     69      1      Au          0.00000000     0.00000000     0.00000000
     70      1      Au          0.00000000     0.00000000     0.00000000
     71      1      Au          0.00000000     0.00000000     0.00000000
     72      1      Au          0.00000000     0.00000000     0.00000000
     73      1      Au          0.00000000     0.00000000     0.00000000
     74      1      Au          0.00000000     0.00000000     0.00000000
     75      1      Au          0.00000000     0.00000000     0.00000000
     76      1      Au          0.00000000     0.00000000     0.00000000
     77      1      Au          0.00000000     0.00000000     0.00000000
     78      1      Au          0.00000000     0.00000000     0.00000000
     79      1      Au          0.00000000     0.00000000     0.00000000
     80      1      Au          0.00000000     0.00000000     0.00000000
     81      1      Au          0.00000000     0.00000000     0.00000000
     82      1      Au          0.00000000     0.00000000     0.00000000
     83      1      Au          0.00000000     0.00000000     0.00000000
     84      1      Au          0.00000000     0.00000000     0.00000000
     85      1      Au          0.00000000     0.00000000     0.00000000
     86      1      Au          0.00000000     0.00000000     0.00000000
     87      1      Au          0.00000000     0.00000000     0.00000000
     88      1      Au          0.00000000     0.00000000     0.00000000
     89      1      Au          0.00000000     0.00000000     0.00000000
     90      1      Au          0.00000000     0.00000000     0.00000000
     91      1      Au          0.00000000     0.00000000     0.00000000
     92      1      Au          0.00000000     0.00000000     0.00000000
     93      1      Au          0.00000000     0.00000000     0.00000000
     94      1      Au          0.00000000     0.00000000     0.00000000
     95      1      Au          0.00000000     0.00000000     0.00000000
     96      1      Au          0.00000000     0.00000000     0.00000000
     97      1      Au          0.00000000     0.00000000     0.00000000
     98      1      Au          0.00000000     0.00000000     0.00000000
     99      1      Au          0.00000000     0.00000000     0.00000000
    100      1      Au          0.00000000     0.00000000     0.00000000
    101      1      Au          0.00000000     0.00000000     0.00000000
    102      1      Au          0.00000000     0.00000000     0.00000000
    103      1      Au          0.00000000     0.00000000     0.00000000
    104      1      Au          0.00000000     0.00000000     0.00000000
    105      1      Au          0.00000000     0.00000000     0.00000000
    106      1      Au          0.00000000     0.00000000     0.00000000
    107      1      Au          0.00000000     0.00000000     0.00000000
    108      1      Au          0.00000000     0.00000000     0.00000000
    109      1      Au          0.00000000     0.00000000     0.00000000
    110      1      Au          0.00000000     0.00000000     0.00000000
    111      1      Au          0.00000000     0.00000000     0.00000000
    112      1      Au          0.00000000     0.00000000     0.00000000
    113      1      Au          0.00000000     0.00000000     0.00000000
 SUM OF ATOMIC FORCES           0.00015457     0.00031791    -0.00145010     0.00149256

 --------  Informations at step =    19 ------------
  Optimization Method        =                 BFGS
  Total Energy               =     -3690.6390381332
  Real energy change         =         0.0000510872
  Predicted change in energy =        -0.0000210493
  Scaling factor             =         0.6940104241
  Step size                  =         0.0325395105
  Trust radius               =         0.4724315332
  Decrease in energy         =                   NO
  Used time                  =             4477.842

  Convergence check :
  Max. step size             =         0.0325395105
  Conv. limit for step size  =         0.0010000000
  Convergence in step size   =                   NO
  RMS step size              =         0.0030956201
  Conv. limit for RMS step   =         0.0010000000
  Convergence in RMS step    =                   NO
  Max. gradient              =         0.0015402295
  Conv. limit for gradients  =         0.0001000000
  Conv. for gradients        =                   NO
  RMS gradient               =         0.0001019062
  Conv. limit for RMS grad.  =         0.0010000000
  Conv. in RMS gradients     =                  YES
 ---------------------------------------------------
 Estimated peak process memory after this step [MiB]                         962

 --------------------------
 OPTIMIZATION STEP:     20
 --------------------------

 Number of electrons:                                                       1223
 Number of occupied orbitals:                                                612
 Number of molecular orbitals:                                               712

 Number of orbital functions:                                               1009
 Number of independent orbital functions:                                   1009

 Extrapolation method: initial_guess


 SCF WAVEFUNCTION OPTIMIZATION

  Step     Update method      Time    Convergence         Total energy    Change
  ------------------------------------------------------------------------------
 SMEAGOL DEBUG| Number of electrons in the unit cell =      1222.9344838055
     1 Broy./SMGL  0.30E+00  169.9     1.68859914     -3690.6540109195 -3.69E+03
 SMEAGOL DEBUG| Number of electrons in the unit cell =      1225.0408988339
     2 Broy./SMGL  0.30E+00  100.8     0.28385546     -3685.1060687778  5.55E+00
 SMEAGOL DEBUG| Number of electrons in the unit cell =      1224.1133914593
     3 Broy./SMGL  0.30E+00  100.1     0.28386977     -3699.7197700687 -1.46E+01
 SMEAGOL DEBUG| Number of electrons in the unit cell =      1223.5013480154
     4 Broy./SMGL  0.30E+00   98.8     0.06563224     -3693.4044868423  6.32E+00
 SMEAGOL DEBUG| Number of electrons in the unit cell =      1223.5696150381
     5 Broy./SMGL  0.30E+00  116.3     0.03442995     -3691.1435169452  2.26E+00
 SMEAGOL DEBUG| Number of electrons in the unit cell =      1223.5542734979
     6 Broy./SMGL  0.30E+00  103.4     0.01364934     -3690.6515883763  4.92E-01
 SMEAGOL DEBUG| Number of electrons in the unit cell =      1223.2481543531
     7 Broy./SMGL  0.30E+00  115.0     0.01001965     -3691.2802921689 -6.29E-01
 SMEAGOL DEBUG| Number of electrons in the unit cell =      1223.0452550382
     8 Broy./SMGL  0.30E+00  129.7     0.00676773     -3691.2486337763  3.17E-02
 SMEAGOL DEBUG| Number of electrons in the unit cell =      1222.9656418203
     9 Broy./SMGL  0.30E+00  102.5     0.00439383     -3690.9141748168  3.34E-01
 SMEAGOL DEBUG| Number of electrons in the unit cell =      1222.9374588109
    10 Broy./SMGL  0.30E+00  103.5     0.00642618     -3690.7569762999  1.57E-01
 SMEAGOL DEBUG| Number of electrons in the unit cell =      1222.9372730225
    11 Broy./SMGL  0.30E+00  104.9     0.00428749     -3690.6892867813  6.77E-02
 SMEAGOL DEBUG| Number of electrons in the unit cell =      1222.9547433549
    12 Broy./SMGL  0.30E+00  103.7     0.00267831     -3690.6564163505  3.29E-02
 SMEAGOL DEBUG| Number of electrons in the unit cell =      1222.9673662066
    13 Broy./SMGL  0.30E+00  105.3     0.00150219     -3690.6524449158  3.97E-03
 SMEAGOL DEBUG| Number of electrons in the unit cell =      1222.9672266588
    14 Broy./SMGL  0.30E+00  104.0     0.00164723     -3690.6517970729  6.48E-04
 SMEAGOL DEBUG| Number of electrons in the unit cell =      1222.9627775664
    15 Broy./SMGL  0.30E+00  101.1     0.00164622     -3690.6444405223  7.36E-03
 SMEAGOL DEBUG| Number of electrons in the unit cell =      1222.9613861339
    16 Broy./SMGL  0.30E+00  105.1     0.00030750     -3690.6394671249  4.97E-03
 SMEAGOL DEBUG| Number of electrons in the unit cell =      1222.9595907348
    17 Broy./SMGL  0.30E+00  105.1     0.00128085     -3690.6390627280  4.04E-04
 SMEAGOL DEBUG| Number of electrons in the unit cell =      1222.9605424932
    18 Broy./SMGL  0.30E+00  104.0     0.00006432     -3690.6381210040  9.42E-04
 SMEAGOL DEBUG| Number of electrons in the unit cell =      1222.9599847007
    19 Broy./SMGL  0.30E+00  104.6     0.00134407     -3690.6388213850 -7.00E-04
 SMEAGOL DEBUG| Number of electrons in the unit cell =      1222.9610874437
    20 Broy./SMGL  0.30E+00  104.3     0.00001979     -3690.6387018570  1.20E-04
 SMEAGOL DEBUG| Number of electrons in the unit cell =      1222.9609928384
    21 Broy./SMGL  0.30E+00  106.4     0.00002184     -3690.6392168527 -5.15E-04
 SMEAGOL DEBUG| Number of electrons in the unit cell =      1222.9608749393
    22 Broy./SMGL  0.30E+00   99.8     0.00000280     -3690.6391348312  8.20E-05
 SMEAGOL DEBUG| Number of electrons in the unit cell =      1222.9609934460
    23 Broy./SMGL  0.30E+00  101.2     0.00000586     -3690.6389234343  2.11E-04
 SMEAGOL DEBUG| Number of electrons in the unit cell =      1222.9610618085
    24 Broy./SMGL  0.30E+00  102.4     0.00013024     -3690.6389341691 -1.07E-05
 SMEAGOL DEBUG| Number of electrons in the unit cell =      1222.9610975313
    25 Broy./SMGL  0.30E+00   98.5     0.00000102     -3690.6389599830 -2.58E-05
 SMEAGOL DEBUG| Number of electrons in the unit cell =      1222.9611124114
    26 Broy./SMGL  0.30E+00  103.3     0.00000245     -3690.6389772669 -1.73E-05
 SMEAGOL DEBUG| Number of electrons in the unit cell =      1222.9611161873
    27 Broy./SMGL  0.30E+00   99.0     0.00000155     -3690.6389775168 -2.50E-07
 SMEAGOL DEBUG| Number of electrons in the unit cell =      1222.9611095846
    28 Broy./SMGL  0.30E+00   96.8     0.00000102     -3690.6389779449 -4.28E-07
 SMEAGOL DEBUG| Number of electrons in the unit cell =      1222.9611196011
    29 Broy./SMGL  0.30E+00   99.2     0.00000045     -3690.6389665094  1.14E-05
 SMEAGOL DEBUG| Number of electrons in the unit cell =      1222.9611185570
    30 Broy./SMGL  0.30E+00  112.6     0.00000058     -3690.6389698246 -3.32E-06
 SMEAGOL DEBUG| Number of electrons in the unit cell =      1222.9611166135
    31 Broy./SMGL  0.30E+00  105.6     0.00128796     -3690.6389692178  6.07E-07
 SMEAGOL DEBUG| Number of electrons in the unit cell =      1222.9611167666
    32 Broy./SMGL  0.30E+00  104.8     0.00000199     -3690.6389441228  2.51E-05
 SMEAGOL DEBUG| Number of electrons in the unit cell =      1222.9611162866
    33 Broy./SMGL  0.30E+00  107.2     0.00000003     -3690.6389447477 -6.25E-07
 SMEAGOL DEBUG| Number of electrons in the unit cell =      1222.9611169311
    34 Broy./SMGL  0.30E+00  100.5     0.00000004     -3690.6389455064 -7.59E-07
 SMEAGOL DEBUG| Number of electrons in the unit cell =      1222.9611148115
    35 Broy./SMGL  0.30E+00  103.1     0.00000004     -3690.6389438679  1.64E-06
 SMEAGOL DEBUG| Number of electrons in the unit cell =      1222.9611153881
    36 Broy./SMGL  0.30E+00  100.8     0.00000001     -3690.6389451507 -1.28E-06
 SMEAGOL DEBUG| Number of electrons in the unit cell =      1222.9611163100
    37 Broy./SMGL  0.30E+00   98.4     0.00000018     -3690.6389462695 -1.12E-06
 SMEAGOL DEBUG| Number of electrons in the unit cell =      1222.9611160674
    38 Broy./SMGL  0.30E+00  100.3     0.00000007     -3690.6389469987 -7.29E-07
 SMEAGOL DEBUG| Number of electrons in the unit cell =      1222.9611168547
    39 Broy./SMGL  0.30E+00   99.9     0.00000033     -3690.6389476077 -6.09E-07
 SMEAGOL DEBUG| Number of electrons in the unit cell =      1222.9611178773
    40 Broy./SMGL  0.30E+00   99.8     0.00134408     -3690.6389642471 -1.66E-05
 SMEAGOL DEBUG| Number of electrons in the unit cell =      1222.9611205055
    41 Broy./SMGL  0.30E+00   96.4     0.00134410     -3690.6390083692 -4.41E-05
 SMEAGOL DEBUG| Number of electrons in the unit cell =      1222.9611170282
    42 Broy./SMGL  0.30E+00   99.7     0.00000065     -3690.6389822265  2.61E-05
 SMEAGOL DEBUG| Number of electrons in the unit cell =      1222.9611177782
    43 Broy./SMGL  0.30E+00  109.1     0.00000046     -3690.6389707174  1.15E-05
 SMEAGOL DEBUG| Number of electrons in the unit cell =      1222.9611165700
    44 Broy./SMGL  0.30E+00   99.8     0.00000031     -3690.6389745816 -3.86E-06
 SMEAGOL DEBUG| Number of electrons in the unit cell =      1222.9611155804
    45 Broy./SMGL  0.30E+00  101.9     0.00000027     -3690.6389748708 -2.89E-07
 SMEAGOL DEBUG| Number of electrons in the unit cell =      1222.9611156276
    46 Broy./SMGL  0.30E+00   98.4     0.00000020     -3690.6389723319  2.54E-06
 SMEAGOL DEBUG| Number of electrons in the unit cell =      1222.9611158668
    47 Broy./SMGL  0.30E+00   99.8     0.00128798     -3690.6389724038 -7.19E-08
 SMEAGOL DEBUG| Number of electrons in the unit cell =      1222.9611178483
    48 Broy./SMGL  0.30E+00   96.9     0.00128812     -3690.6389485578  2.38E-05
 SMEAGOL DEBUG| Number of electrons in the unit cell =      1222.9611161248
    49 Broy./SMGL  0.30E+00   97.1     0.00000069     -3690.6389784807 -2.99E-05
 SMEAGOL DEBUG| Number of electrons in the unit cell =      1222.9611160673
    50 Broy./SMGL  0.30E+00   96.9     0.00000051     -3690.6389755426  2.94E-06
 SMEAGOL DEBUG| Number of electrons in the unit cell =      1222.9611157532
    51 Broy./SMGL  0.30E+00   98.0     0.00000039     -3690.6389756275 -8.49E-08
 SMEAGOL DEBUG| Number of electrons in the unit cell =      1222.9611158780
    52 Broy./SMGL  0.30E+00  100.5     0.00000022     -3690.6389737468  1.88E-06
 SMEAGOL DEBUG| Number of electrons in the unit cell =      1222.9611159632
    53 Broy./SMGL  0.30E+00   96.1     0.00000017     -3690.6389732765  4.70E-07
 SMEAGOL DEBUG| Number of electrons in the unit cell =      1222.9611160275
    54 Broy./SMGL  0.30E+00  101.4     0.00000007     -3690.6389728488  4.28E-07
 SMEAGOL DEBUG| Number of electrons in the unit cell =      1222.9611161745
    55 Broy./SMGL  0.30E+00   98.4     0.00128797     -3690.6389726520  1.97E-07
 SMEAGOL DEBUG| Number of electrons in the unit cell =      1222.9611165626
    56 Broy./SMGL  0.30E+00   98.0     0.00128818     -3690.6389491809  2.35E-05
 SMEAGOL DEBUG| Number of electrons in the unit cell =      1222.9611163058
    57 Broy./SMGL  0.30E+00   99.0     0.00000239     -3690.6389800522 -3.09E-05
 SMEAGOL DEBUG| Number of electrons in the unit cell =      1222.9611164237
    58 Broy./SMGL  0.30E+00   96.8     0.00000031     -3690.6389739755  6.08E-06
 SMEAGOL DEBUG| Number of electrons in the unit cell =      1222.9611163414
    59 Broy./SMGL  0.30E+00   99.9     0.00000012     -3690.6389737680  2.08E-07
 SMEAGOL DEBUG| Number of electrons in the unit cell =      1222.9611163599
    60 Broy./SMGL  0.30E+00  118.8     0.00000004     -3690.6389731111  6.57E-07
 SMEAGOL DEBUG| Number of electrons in the unit cell =      1222.9611164149
    61 Broy./SMGL  0.30E+00  100.8     0.00000007     -3690.6389731363 -2.52E-08
 SMEAGOL DEBUG| Number of electrons in the unit cell =      1222.9611164212
    62 Broy./SMGL  0.30E+00  104.1     0.00000010     -3690.6389732127 -7.64E-08
 SMEAGOL DEBUG| Number of electrons in the unit cell =      1222.9611164134
    63 Broy./SMGL  0.30E+00   99.9     0.00128797     -3690.6389730527  1.60E-07
 SMEAGOL DEBUG| Number of electrons in the unit cell =      1222.9611162267
    64 Broy./SMGL  0.30E+00   98.6     0.00128829     -3690.6389471276  2.59E-05
 SMEAGOL DEBUG| Number of electrons in the unit cell =      1222.9611164380
    65 Broy./SMGL  0.30E+00  100.3     0.00000370     -3690.6389843920 -3.73E-05
 SMEAGOL DEBUG| Number of electrons in the unit cell =      1222.9611165896
    66 Broy./SMGL  0.30E+00  101.9     0.00000059     -3690.6389753248  9.07E-06
 SMEAGOL DEBUG| Number of electrons in the unit cell =      1222.9611166439
    67 Broy./SMGL  0.30E+00  151.1     0.00000020     -3690.6389739002  1.42E-06
 SMEAGOL DEBUG| Number of electrons in the unit cell =      1222.9611166747
    68 Broy./SMGL  0.30E+00  100.7     0.00000017     -3690.6389734202  4.80E-07
 SMEAGOL DEBUG| Number of electrons in the unit cell =      1222.9611166482
    69 Broy./SMGL  0.30E+00  124.9     0.00128797     -3690.6389729470  4.73E-07
 SMEAGOL DEBUG| Number of electrons in the unit cell =      1222.9611163699
    70 Broy./SMGL  0.30E+00  101.1     0.00128829     -3690.6389487820  2.42E-05
 SMEAGOL DEBUG| Number of electrons in the unit cell =      1222.9611163993
    71 Broy./SMGL  0.30E+00  102.5     0.00000371     -3690.6389836719 -3.49E-05
 SMEAGOL DEBUG| Number of electrons in the unit cell =      1222.9611165831
    72 Broy./SMGL  0.30E+00  100.1     0.00000085     -3690.6389764138  7.26E-06
 SMEAGOL DEBUG| Number of electrons in the unit cell =      1222.9611167716
