 # Version information for this restart file 
 # current date 2024-01-12 15:30:34.410
 # current working dir /gpfs/home/cahart/transport/melamine/au_from-h2/ci-neb/ts2/dft_leads-sz_tip-dzvp_surf-dzvp_kpoints-2-4-20_replicas-7
 # Program compiled at                              Thu 21 Sep 19:20:17 BST 2023
 # Program compiled on                                           hx1-c12-login-1
 # Program compiled for                                                    local
 # Source code revision number                                       git:5518aa6
 &GLOBAL
   EXTENDED_FFT_LENGTHS  T
   PRINT_LEVEL  MEDIUM
   PROJECT_NAME 2_dft_wfn-r-0
   OUTPUT_FILE_NAME 2_dft_wfn-r-0.out
   RUN_TYPE  BAND
 &END GLOBAL
 &MOTION
   &BAND
     NPROC_REP  64
     BAND_TYPE  CI-NEB
     NUMBER_OF_REPLICA  7
     K_SPRING     5.0000000000000003E-02
     &CI_NEB
       NSTEPS_IT  5
     &END CI_NEB
     &OPTIMIZE_BAND
       OPT_TYPE  DIIS
       &DIIS
         MAX_STEPS  1000
       &END DIIS
     &END OPTIMIZE_BAND
     &REPLICA
       &COORD
             0.0000000000000000E+00    0.0000000000000000E+00    0.0000000000000000E+00
             0.0000000000000000E+00    2.9550000000000014E+00    0.0000000000000000E+00
             0.0000000000000000E+00    5.9109999999999960E+00    0.0000000000000000E+00
             2.9559999999999995E+00    0.0000000000000000E+00    0.0000000000000000E+00
             2.9559999999999995E+00    2.9550000000000014E+00    0.0000000000000000E+00
             2.9559999999999995E+00    5.9109999999999960E+00    0.0000000000000000E+00
             5.9119999999999990E+00    0.0000000000000000E+00    0.0000000000000000E+00
             5.9119999999999990E+00    2.9550000000000014E+00    0.0000000000000000E+00
             5.9119999999999990E+00    5.9109999999999960E+00    0.0000000000000000E+00
             8.6699999999999946E+00    0.0000000000000000E+00    0.0000000000000000E+00
             8.6699999999999946E+00    2.9550000000000014E+00    0.0000000000000000E+00
             8.6699999999999946E+00    5.9109999999999960E+00    0.0000000000000000E+00
             1.1625999999999998E+01    0.0000000000000000E+00    0.0000000000000000E+00
             1.1625999999999998E+01    2.9550000000000014E+00    0.0000000000000000E+00
             1.1625999999999998E+01    5.9109999999999960E+00    0.0000000000000000E+00
             1.4779999999999998E+00    1.4779999999999998E+00    2.0900000000000007E+00
             1.4779999999999998E+00    4.4329999999999963E+00    2.0900000000000007E+00
             1.4779999999999998E+00    7.3889999999999976E+00    2.0900000000000007E+00
             4.4340000000000011E+00    1.4779999999999998E+00    2.0900000000000007E+00
             4.4340000000000011E+00    4.4329999999999963E+00    2.0900000000000007E+00
             4.4340000000000011E+00    7.3889999999999976E+00    2.0900000000000007E+00
             7.1919999999999993E+00    1.4779999999999998E+00    2.0900000000000007E+00
             7.1919999999999993E+00    4.4329999999999963E+00    2.0900000000000007E+00
             7.1919999999999993E+00    7.3889999999999976E+00    2.0900000000000007E+00
             1.0148000000000005E+01    1.4779999999999998E+00    2.0900000000000007E+00
             1.0148000000000005E+01    4.4329999999999963E+00    2.0900000000000007E+00
             1.0148000000000005E+01    7.3889999999999976E+00    2.0900000000000007E+00
             1.3103999999999997E+01    1.4779999999999998E+00    2.0900000000000007E+00
             1.3103999999999997E+01    4.4329999999999963E+00    2.0900000000000007E+00
             1.3103999999999997E+01    7.3889999999999976E+00    2.0900000000000007E+00
             0.0000000000000000E+00    0.0000000000000000E+00    4.1800000000000015E+00
             0.0000000000000000E+00    2.9550000000000014E+00    4.1800000000000015E+00
             0.0000000000000000E+00    5.9109999999999960E+00    4.1800000000000015E+00
             2.9559999999999995E+00    0.0000000000000000E+00    4.1800000000000015E+00
             2.9559999999999995E+00    2.9550000000000014E+00    4.1800000000000015E+00
             2.9559999999999995E+00    5.9109999999999960E+00    4.1800000000000015E+00
             5.9119999999999990E+00    0.0000000000000000E+00    4.1800000000000015E+00
             5.9119999999999990E+00    2.9550000000000014E+00    4.1800000000000015E+00
             5.9119999999999990E+00    5.9109999999999960E+00    4.1800000000000015E+00
             8.6699999999999946E+00    0.0000000000000000E+00    4.1800000000000015E+00
             8.6699999999999946E+00    2.9550000000000014E+00    4.1800000000000015E+00
             8.6699999999999946E+00    5.9109999999999960E+00    4.1800000000000015E+00
             1.1625999999999998E+01    0.0000000000000000E+00    4.1800000000000015E+00
             1.1625999999999998E+01    2.9550000000000014E+00    4.1800000000000015E+00
             1.1625999999999998E+01    5.9109999999999960E+00    4.1800000000000015E+00
             1.4779999999999998E+00    1.4779999999999998E+00    6.2699999999999951E+00
             1.4779999999999998E+00    4.4329999999999963E+00    6.2699999999999951E+00
             1.4779999999999998E+00    7.3889999999999976E+00    6.2699999999999951E+00
             4.4340000000000011E+00    1.4779999999999998E+00    6.2699999999999951E+00
             4.4340000000000011E+00    4.4329999999999963E+00    6.2699999999999951E+00
             4.4340000000000011E+00    7.3889999999999976E+00    6.2699999999999951E+00
             7.1919999999999993E+00    1.4779999999999998E+00    6.2699999999999951E+00
             7.1919999999999993E+00    4.4329999999999963E+00    6.2699999999999951E+00
             7.1919999999999993E+00    7.3889999999999976E+00    6.2699999999999951E+00
             1.0148000000000005E+01    1.4779999999999998E+00    6.2699999999999951E+00
             1.0148000000000005E+01    4.4329999999999963E+00    6.2699999999999951E+00
             1.0148000000000005E+01    7.3889999999999976E+00    6.2699999999999951E+00
             1.3103999999999997E+01    1.4779999999999998E+00    6.2699999999999951E+00
             1.3103999999999997E+01    4.4329999999999963E+00    6.2699999999999951E+00
             1.3103999999999997E+01    7.3889999999999976E+00    6.2699999999999951E+00
             0.0000000000000000E+00    0.0000000000000000E+00    8.3600000000000030E+00
             0.0000000000000000E+00    2.9550000000000014E+00    8.3600000000000030E+00
             0.0000000000000000E+00    5.9109999999999960E+00    8.3600000000000030E+00
             2.9559999999999995E+00    0.0000000000000000E+00    8.3600000000000030E+00
             2.9559999999999995E+00    2.9550000000000014E+00    8.3600000000000030E+00
             2.9559999999999995E+00    5.9109999999999960E+00    8.3600000000000030E+00
             5.9119999999999990E+00    0.0000000000000000E+00    8.3600000000000030E+00
             5.9119999999999990E+00    2.9550000000000014E+00    8.3600000000000030E+00
             5.9119999999999990E+00    5.9109999999999960E+00    8.3600000000000030E+00
             8.6699999999999946E+00    0.0000000000000000E+00    8.3600000000000030E+00
             8.6699999999999946E+00    2.9550000000000014E+00    8.3600000000000030E+00
             8.6699999999999946E+00    5.9109999999999960E+00    8.3600000000000030E+00
             1.1625999999999998E+01    0.0000000000000000E+00    8.3600000000000030E+00
             1.1625999999999998E+01    2.9550000000000014E+00    8.3600000000000030E+00
             1.1625999999999998E+01    5.9109999999999960E+00    8.3600000000000030E+00
             1.4779999999999998E+00    1.4779999999999998E+00    1.0450000000000003E+01
             1.4779999999999998E+00    4.4329999999999963E+00    1.0450000000000003E+01
             1.4779999999999998E+00    7.3889999999999976E+00    1.0450000000000003E+01
             4.4340000000000011E+00    1.4779999999999998E+00    1.0450000000000003E+01
             4.4340000000000011E+00    4.4329999999999963E+00    1.0450000000000003E+01
             4.4340000000000011E+00    7.3889999999999976E+00    1.0450000000000003E+01
             7.1919999999999993E+00    1.4779999999999998E+00    1.0450000000000003E+01
             7.1919999999999993E+00    4.4329999999999963E+00    1.0450000000000003E+01
             7.1919999999999993E+00    7.3889999999999976E+00    1.0450000000000003E+01
             1.0148000000000005E+01    1.4779999999999998E+00    1.0450000000000003E+01
             1.0148000000000005E+01    4.4329999999999963E+00    1.0450000000000003E+01
             1.0148000000000005E+01    7.3889999999999976E+00    1.0450000000000003E+01
             1.3103999999999997E+01    1.4779999999999998E+00    1.0450000000000003E+01
             1.3103999999999997E+01    4.4329999999999963E+00    1.0450000000000003E+01
             1.3103999999999997E+01    7.3889999999999976E+00    1.0450000000000003E+01
             4.8554000000000004E+00    5.9119000000000028E+00    1.2031800000000002E+01
             9.5279999999999951E+00    5.9136999999999977E+00    1.2034000000000004E+01
             7.1919999999999993E+00    5.9339999999999993E+00    1.2039999999999999E+01
             4.0673339927999974E+00    5.9059993220000013E+00    1.2687741368899998E+01
             1.0318905404799995E+01    5.9087793826000006E+00    1.2685747073200005E+01
             5.9989554222000008E+00    5.9152564166000010E+00    1.2792642411200008E+01
             8.3738707292999965E+00    5.9179777706999994E+00    1.2731457252200000E+01
             8.3227525761999974E+00    5.9051536094999975E+00    1.4080497642100003E+01
             5.9344285048999961E+00    5.8981604865000010E+00    1.4101749969599998E+01
             7.1039653576999999E+00    5.8899410688999989E+00    1.4828703219099998E+01
             7.2416021046999957E+00    5.8657702091999946E+00    1.6106466757299994E+01
             6.3118250322999963E+00    5.8547577070999992E+00    1.6539601306200005E+01
             9.1743570612999967E+00    5.8876302391999982E+00    1.4641017735299993E+01
             7.3119999999999985E+00    5.9339999999999993E+00    2.1043000000000003E+01
             5.8129999999999988E+00    7.4339999999999966E+00    2.2991999999999990E+01
             8.8129999999999971E+00    4.4340000000000011E+00    2.2991999999999990E+01
             5.8129999999999988E+00    4.4329999999999963E+00    2.2991999999999990E+01
             8.8129999999999971E+00    7.4339999999999966E+00    2.2991999999999990E+01
             1.4779999999999998E+00    1.4779999999999998E+00    2.5081999999999997E+01
             1.4779999999999998E+00    4.4329999999999963E+00    2.5081999999999997E+01
             1.4779999999999998E+00    7.3889999999999976E+00    2.5081999999999997E+01
             4.4340000000000011E+00    1.4779999999999998E+00    2.5081999999999997E+01
             4.4340000000000011E+00    4.4329999999999963E+00    2.5081999999999997E+01
             4.4340000000000011E+00    7.3889999999999976E+00    2.5081999999999997E+01
             7.1919999999999993E+00    1.4779999999999998E+00    2.5081999999999997E+01
             7.1919999999999993E+00    4.4329999999999963E+00    2.5081999999999997E+01
             7.1919999999999993E+00    7.3889999999999976E+00    2.5081999999999997E+01
             1.0148000000000005E+01    1.4779999999999998E+00    2.5081999999999997E+01
             1.0148000000000005E+01    4.4329999999999963E+00    2.5081999999999997E+01
             1.0148000000000005E+01    7.3889999999999976E+00    2.5081999999999997E+01
             1.3103999999999997E+01    1.4779999999999998E+00    2.5081999999999997E+01
             1.3103999999999997E+01    4.4329999999999963E+00    2.5081999999999997E+01
             1.3103999999999997E+01    7.3889999999999976E+00    2.5081999999999997E+01
             0.0000000000000000E+00    0.0000000000000000E+00    2.7172000000000004E+01
             0.0000000000000000E+00    2.9550000000000014E+00    2.7172000000000004E+01
             0.0000000000000000E+00    5.9109999999999960E+00    2.7172000000000004E+01
             2.9559999999999995E+00    0.0000000000000000E+00    2.7172000000000004E+01
             2.9559999999999995E+00    2.9550000000000014E+00    2.7172000000000004E+01
             2.9559999999999995E+00    5.9109999999999960E+00    2.7172000000000004E+01
             5.9119999999999990E+00    0.0000000000000000E+00    2.7172000000000004E+01
             5.9119999999999990E+00    2.9550000000000014E+00    2.7172000000000004E+01
             5.9119999999999990E+00    5.9109999999999960E+00    2.7172000000000004E+01
             8.6699999999999946E+00    0.0000000000000000E+00    2.7172000000000004E+01
             8.6699999999999946E+00    2.9550000000000014E+00    2.7172000000000004E+01
             8.6699999999999946E+00    5.9109999999999960E+00    2.7172000000000004E+01
             1.1625999999999998E+01    0.0000000000000000E+00    2.7172000000000004E+01
             1.1625999999999998E+01    2.9550000000000014E+00    2.7172000000000004E+01
             1.1625999999999998E+01    5.9109999999999960E+00    2.7172000000000004E+01
             1.4779999999999998E+00    1.4779999999999998E+00    2.9262000000000011E+01
             1.4779999999999998E+00    4.4329999999999963E+00    2.9262000000000011E+01
             1.4779999999999998E+00    7.3889999999999976E+00    2.9262000000000011E+01
             4.4340000000000011E+00    1.4779999999999998E+00    2.9262000000000011E+01
             4.4340000000000011E+00    4.4329999999999963E+00    2.9262000000000011E+01
             4.4340000000000011E+00    7.3889999999999976E+00    2.9262000000000011E+01
             7.1919999999999993E+00    1.4779999999999998E+00    2.9262000000000011E+01
             7.1919999999999993E+00    4.4329999999999963E+00    2.9262000000000011E+01
             7.1919999999999993E+00    7.3889999999999976E+00    2.9262000000000011E+01
             1.0148000000000005E+01    1.4779999999999998E+00    2.9262000000000011E+01
             1.0148000000000005E+01    4.4329999999999963E+00    2.9262000000000011E+01
             1.0148000000000005E+01    7.3889999999999976E+00    2.9262000000000011E+01
             1.3103999999999997E+01    1.4779999999999998E+00    2.9262000000000011E+01
             1.3103999999999997E+01    4.4329999999999963E+00    2.9262000000000011E+01
             1.3103999999999997E+01    7.3889999999999976E+00    2.9262000000000011E+01
             0.0000000000000000E+00    0.0000000000000000E+00    3.1352000000000015E+01
             0.0000000000000000E+00    2.9550000000000014E+00    3.1352000000000015E+01
             0.0000000000000000E+00    5.9109999999999960E+00    3.1352000000000015E+01
             2.9559999999999995E+00    0.0000000000000000E+00    3.1352000000000015E+01
             2.9559999999999995E+00    2.9550000000000014E+00    3.1352000000000015E+01
             2.9559999999999995E+00    5.9109999999999960E+00    3.1352000000000015E+01
             5.9119999999999990E+00    0.0000000000000000E+00    3.1352000000000015E+01
             5.9119999999999990E+00    2.9550000000000014E+00    3.1352000000000015E+01
             5.9119999999999990E+00    5.9109999999999960E+00    3.1352000000000015E+01
             8.6699999999999946E+00    0.0000000000000000E+00    3.1352000000000015E+01
             8.6699999999999946E+00    2.9550000000000014E+00    3.1352000000000015E+01
             8.6699999999999946E+00    5.9109999999999960E+00    3.1352000000000015E+01
             1.1625999999999998E+01    0.0000000000000000E+00    3.1352000000000015E+01
             1.1625999999999998E+01    2.9550000000000014E+00    3.1352000000000015E+01
             1.1625999999999998E+01    5.9109999999999960E+00    3.1352000000000015E+01
             1.4779999999999998E+00    1.4779999999999998E+00    3.3441999999999986E+01
             1.4779999999999998E+00    4.4329999999999963E+00    3.3441999999999986E+01
             1.4779999999999998E+00    7.3889999999999976E+00    3.3441999999999986E+01
             4.4340000000000011E+00    1.4779999999999998E+00    3.3441999999999986E+01
             4.4340000000000011E+00    4.4329999999999963E+00    3.3441999999999986E+01
             4.4340000000000011E+00    7.3889999999999976E+00    3.3441999999999986E+01
             7.1919999999999993E+00    1.4779999999999998E+00    3.3441999999999986E+01
             7.1919999999999993E+00    4.4329999999999963E+00    3.3441999999999986E+01
             7.1919999999999993E+00    7.3889999999999976E+00    3.3441999999999986E+01
             1.0148000000000005E+01    1.4779999999999998E+00    3.3441999999999986E+01
             1.0148000000000005E+01    4.4329999999999963E+00    3.3441999999999986E+01
             1.0148000000000005E+01    7.3889999999999976E+00    3.3441999999999986E+01
             1.3103999999999997E+01    1.4779999999999998E+00    3.3441999999999986E+01
             1.3103999999999997E+01    4.4329999999999963E+00    3.3441999999999986E+01
             1.3103999999999997E+01    7.3889999999999976E+00    3.3441999999999986E+01
       &END COORD
       &VELOCITY
             0.0000000000000000E+00    0.0000000000000000E+00    0.0000000000000000E+00
             0.0000000000000000E+00    0.0000000000000000E+00    0.0000000000000000E+00
             0.0000000000000000E+00    0.0000000000000000E+00    0.0000000000000000E+00
             0.0000000000000000E+00    0.0000000000000000E+00    0.0000000000000000E+00
             0.0000000000000000E+00    0.0000000000000000E+00    0.0000000000000000E+00
             0.0000000000000000E+00    0.0000000000000000E+00    0.0000000000000000E+00
             0.0000000000000000E+00    0.0000000000000000E+00    0.0000000000000000E+00
             0.0000000000000000E+00    0.0000000000000000E+00    0.0000000000000000E+00
             0.0000000000000000E+00    0.0000000000000000E+00    0.0000000000000000E+00
             0.0000000000000000E+00    0.0000000000000000E+00    0.0000000000000000E+00
             0.0000000000000000E+00    0.0000000000000000E+00    0.0000000000000000E+00
             0.0000000000000000E+00    0.0000000000000000E+00    0.0000000000000000E+00
             0.0000000000000000E+00    0.0000000000000000E+00    0.0000000000000000E+00
             0.0000000000000000E+00    0.0000000000000000E+00    0.0000000000000000E+00
             0.0000000000000000E+00    0.0000000000000000E+00    0.0000000000000000E+00
             0.0000000000000000E+00    0.0000000000000000E+00    0.0000000000000000E+00
             0.0000000000000000E+00    0.0000000000000000E+00    0.0000000000000000E+00
             0.0000000000000000E+00    0.0000000000000000E+00    0.0000000000000000E+00
             0.0000000000000000E+00    0.0000000000000000E+00    0.0000000000000000E+00
             0.0000000000000000E+00    0.0000000000000000E+00    0.0000000000000000E+00
             0.0000000000000000E+00    0.0000000000000000E+00    0.0000000000000000E+00
             0.0000000000000000E+00    0.0000000000000000E+00    0.0000000000000000E+00
             0.0000000000000000E+00    0.0000000000000000E+00    0.0000000000000000E+00
             0.0000000000000000E+00    0.0000000000000000E+00    0.0000000000000000E+00
             0.0000000000000000E+00    0.0000000000000000E+00    0.0000000000000000E+00
             0.0000000000000000E+00    0.0000000000000000E+00    0.0000000000000000E+00
             0.0000000000000000E+00    0.0000000000000000E+00    0.0000000000000000E+00
             0.0000000000000000E+00    0.0000000000000000E+00    0.0000000000000000E+00
             0.0000000000000000E+00    0.0000000000000000E+00    0.0000000000000000E+00
             0.0000000000000000E+00    0.0000000000000000E+00    0.0000000000000000E+00
             0.0000000000000000E+00    0.0000000000000000E+00    0.0000000000000000E+00
             0.0000000000000000E+00    0.0000000000000000E+00    0.0000000000000000E+00
             0.0000000000000000E+00    0.0000000000000000E+00    0.0000000000000000E+00
             0.0000000000000000E+00    0.0000000000000000E+00    0.0000000000000000E+00
             0.0000000000000000E+00    0.0000000000000000E+00    0.0000000000000000E+00
             0.0000000000000000E+00    0.0000000000000000E+00    0.0000000000000000E+00
             0.0000000000000000E+00    0.0000000000000000E+00    0.0000000000000000E+00
             0.0000000000000000E+00    0.0000000000000000E+00    0.0000000000000000E+00
             0.0000000000000000E+00    0.0000000000000000E+00    0.0000000000000000E+00
             0.0000000000000000E+00    0.0000000000000000E+00    0.0000000000000000E+00
             0.0000000000000000E+00    0.0000000000000000E+00    0.0000000000000000E+00
             0.0000000000000000E+00    0.0000000000000000E+00    0.0000000000000000E+00
             0.0000000000000000E+00    0.0000000000000000E+00    0.0000000000000000E+00
             0.0000000000000000E+00    0.0000000000000000E+00    0.0000000000000000E+00
             0.0000000000000000E+00    0.0000000000000000E+00    0.0000000000000000E+00
             0.0000000000000000E+00    0.0000000000000000E+00    0.0000000000000000E+00
             0.0000000000000000E+00    0.0000000000000000E+00    0.0000000000000000E+00
             0.0000000000000000E+00    0.0000000000000000E+00    0.0000000000000000E+00
             0.0000000000000000E+00    0.0000000000000000E+00    0.0000000000000000E+00
             0.0000000000000000E+00    0.0000000000000000E+00    0.0000000000000000E+00
             0.0000000000000000E+00    0.0000000000000000E+00    0.0000000000000000E+00
             0.0000000000000000E+00    0.0000000000000000E+00    0.0000000000000000E+00
             0.0000000000000000E+00    0.0000000000000000E+00    0.0000000000000000E+00
             0.0000000000000000E+00    0.0000000000000000E+00    0.0000000000000000E+00
             0.0000000000000000E+00    0.0000000000000000E+00    0.0000000000000000E+00
             0.0000000000000000E+00    0.0000000000000000E+00    0.0000000000000000E+00
             0.0000000000000000E+00    0.0000000000000000E+00    0.0000000000000000E+00
             0.0000000000000000E+00    0.0000000000000000E+00    0.0000000000000000E+00
             0.0000000000000000E+00    0.0000000000000000E+00    0.0000000000000000E+00
             0.0000000000000000E+00    0.0000000000000000E+00    0.0000000000000000E+00
             0.0000000000000000E+00    0.0000000000000000E+00    0.0000000000000000E+00
             0.0000000000000000E+00    0.0000000000000000E+00    0.0000000000000000E+00
             0.0000000000000000E+00    0.0000000000000000E+00    0.0000000000000000E+00
             0.0000000000000000E+00    0.0000000000000000E+00    0.0000000000000000E+00
             0.0000000000000000E+00    0.0000000000000000E+00    0.0000000000000000E+00
             0.0000000000000000E+00    0.0000000000000000E+00    0.0000000000000000E+00
             0.0000000000000000E+00    0.0000000000000000E+00    0.0000000000000000E+00
             0.0000000000000000E+00    0.0000000000000000E+00    0.0000000000000000E+00
             0.0000000000000000E+00    0.0000000000000000E+00    0.0000000000000000E+00
             0.0000000000000000E+00    0.0000000000000000E+00    0.0000000000000000E+00
             0.0000000000000000E+00    0.0000000000000000E+00    0.0000000000000000E+00
             0.0000000000000000E+00    0.0000000000000000E+00    0.0000000000000000E+00
             0.0000000000000000E+00    0.0000000000000000E+00    0.0000000000000000E+00
             0.0000000000000000E+00    0.0000000000000000E+00    0.0000000000000000E+00
             0.0000000000000000E+00    0.0000000000000000E+00    0.0000000000000000E+00
             0.0000000000000000E+00    0.0000000000000000E+00    0.0000000000000000E+00
             0.0000000000000000E+00    0.0000000000000000E+00    0.0000000000000000E+00
             0.0000000000000000E+00    0.0000000000000000E+00    0.0000000000000000E+00
             0.0000000000000000E+00    0.0000000000000000E+00    0.0000000000000000E+00
             0.0000000000000000E+00    0.0000000000000000E+00    0.0000000000000000E+00
             0.0000000000000000E+00    0.0000000000000000E+00    0.0000000000000000E+00
             0.0000000000000000E+00    0.0000000000000000E+00    0.0000000000000000E+00
             0.0000000000000000E+00    0.0000000000000000E+00    0.0000000000000000E+00
             0.0000000000000000E+00    0.0000000000000000E+00    0.0000000000000000E+00
             0.0000000000000000E+00    0.0000000000000000E+00    0.0000000000000000E+00
             0.0000000000000000E+00    0.0000000000000000E+00    0.0000000000000000E+00
             0.0000000000000000E+00    0.0000000000000000E+00    0.0000000000000000E+00
             0.0000000000000000E+00    0.0000000000000000E+00    0.0000000000000000E+00
             0.0000000000000000E+00    0.0000000000000000E+00    0.0000000000000000E+00
             0.0000000000000000E+00    0.0000000000000000E+00    0.0000000000000000E+00
             0.0000000000000000E+00    0.0000000000000000E+00    0.0000000000000000E+00
             0.0000000000000000E+00    0.0000000000000000E+00    0.0000000000000000E+00
             0.0000000000000000E+00    0.0000000000000000E+00    0.0000000000000000E+00
             0.0000000000000000E+00    0.0000000000000000E+00    0.0000000000000000E+00
             0.0000000000000000E+00    0.0000000000000000E+00    0.0000000000000000E+00
             0.0000000000000000E+00    0.0000000000000000E+00    0.0000000000000000E+00
             0.0000000000000000E+00    0.0000000000000000E+00    0.0000000000000000E+00
             0.0000000000000000E+00    0.0000000000000000E+00    0.0000000000000000E+00
             0.0000000000000000E+00    0.0000000000000000E+00    0.0000000000000000E+00
             0.0000000000000000E+00    0.0000000000000000E+00    0.0000000000000000E+00
             0.0000000000000000E+00    0.0000000000000000E+00    0.0000000000000000E+00
             0.0000000000000000E+00    0.0000000000000000E+00    0.0000000000000000E+00
             0.0000000000000000E+00    0.0000000000000000E+00    0.0000000000000000E+00
             0.0000000000000000E+00    0.0000000000000000E+00    0.0000000000000000E+00
             0.0000000000000000E+00    0.0000000000000000E+00    0.0000000000000000E+00
             0.0000000000000000E+00    0.0000000000000000E+00    0.0000000000000000E+00
             0.0000000000000000E+00    0.0000000000000000E+00    0.0000000000000000E+00
             0.0000000000000000E+00    0.0000000000000000E+00    0.0000000000000000E+00
             0.0000000000000000E+00    0.0000000000000000E+00    0.0000000000000000E+00
             0.0000000000000000E+00    0.0000000000000000E+00    0.0000000000000000E+00
             0.0000000000000000E+00    0.0000000000000000E+00    0.0000000000000000E+00
             0.0000000000000000E+00    0.0000000000000000E+00    0.0000000000000000E+00
             0.0000000000000000E+00    0.0000000000000000E+00    0.0000000000000000E+00
             0.0000000000000000E+00    0.0000000000000000E+00    0.0000000000000000E+00
             0.0000000000000000E+00    0.0000000000000000E+00    0.0000000000000000E+00
             0.0000000000000000E+00    0.0000000000000000E+00    0.0000000000000000E+00
             0.0000000000000000E+00    0.0000000000000000E+00    0.0000000000000000E+00
             0.0000000000000000E+00    0.0000000000000000E+00    0.0000000000000000E+00
             0.0000000000000000E+00    0.0000000000000000E+00    0.0000000000000000E+00
             0.0000000000000000E+00    0.0000000000000000E+00    0.0000000000000000E+00
             0.0000000000000000E+00    0.0000000000000000E+00    0.0000000000000000E+00
             0.0000000000000000E+00    0.0000000000000000E+00    0.0000000000000000E+00
             0.0000000000000000E+00    0.0000000000000000E+00    0.0000000000000000E+00
             0.0000000000000000E+00    0.0000000000000000E+00    0.0000000000000000E+00
             0.0000000000000000E+00    0.0000000000000000E+00    0.0000000000000000E+00
             0.0000000000000000E+00    0.0000000000000000E+00    0.0000000000000000E+00
             0.0000000000000000E+00    0.0000000000000000E+00    0.0000000000000000E+00
             0.0000000000000000E+00    0.0000000000000000E+00    0.0000000000000000E+00
             0.0000000000000000E+00    0.0000000000000000E+00    0.0000000000000000E+00
             0.0000000000000000E+00    0.0000000000000000E+00    0.0000000000000000E+00
             0.0000000000000000E+00    0.0000000000000000E+00    0.0000000000000000E+00
             0.0000000000000000E+00    0.0000000000000000E+00    0.0000000000000000E+00
             0.0000000000000000E+00    0.0000000000000000E+00    0.0000000000000000E+00
             0.0000000000000000E+00    0.0000000000000000E+00    0.0000000000000000E+00
             0.0000000000000000E+00    0.0000000000000000E+00    0.0000000000000000E+00
             0.0000000000000000E+00    0.0000000000000000E+00    0.0000000000000000E+00
             0.0000000000000000E+00    0.0000000000000000E+00    0.0000000000000000E+00
             0.0000000000000000E+00    0.0000000000000000E+00    0.0000000000000000E+00
             0.0000000000000000E+00    0.0000000000000000E+00    0.0000000000000000E+00
             0.0000000000000000E+00    0.0000000000000000E+00    0.0000000000000000E+00
             0.0000000000000000E+00    0.0000000000000000E+00    0.0000000000000000E+00
             0.0000000000000000E+00    0.0000000000000000E+00    0.0000000000000000E+00
             0.0000000000000000E+00    0.0000000000000000E+00    0.0000000000000000E+00
             0.0000000000000000E+00    0.0000000000000000E+00    0.0000000000000000E+00
             0.0000000000000000E+00    0.0000000000000000E+00    0.0000000000000000E+00