 # Version information for this restart file 
 # current date 2024-01-12 17:30:49.322
 # current working dir /gpfs/home/cahart/transport/melamine/au_from-h2/ci-neb/ts2/dft_leads-sz_tip-dzvp_surf-dzvp_kpoints-2-4-20_replicas-7
 # Program compiled at                              Thu 21 Sep 19:20:17 BST 2023
 # Program compiled on                                           hx1-c12-login-1
 # Program compiled for                                                    local
 # Source code revision number                                       git:5518aa6
 &GLOBAL
   EXTENDED_FFT_LENGTHS  T
   PRINT_LEVEL  MEDIUM
   PROJECT_NAME 2_dft_wfn-r-0
   OUTPUT_FILE_NAME 2_dft_wfn-r-0.out
   RUN_TYPE  BAND
 &END GLOBAL
 &MOTION
   &BAND
     NPROC_REP  64
     BAND_TYPE  CI-NEB
     NUMBER_OF_REPLICA  7
     K_SPRING     5.0000000000000003E-02
     &CI_NEB
       NSTEPS_IT  5
     &END CI_NEB
     &OPTIMIZE_BAND
       OPT_TYPE  DIIS
       &DIIS
         MAX_STEPS  1000
       &END DIIS
     &END OPTIMIZE_BAND
     &REPLICA
       &COORD
             0.0000000000000000E+00    0.0000000000000000E+00    0.0000000000000000E+00
             0.0000000000000000E+00    2.9549999999999934E+00    0.0000000000000000E+00
             0.0000000000000000E+00    5.9109999999999792E+00    0.0000000000000000E+00
             2.9559999999999902E+00    0.0000000000000000E+00    0.0000000000000000E+00
             2.9559999999999902E+00    2.9549999999999934E+00    0.0000000000000000E+00
             2.9559999999999902E+00    5.9109999999999792E+00    0.0000000000000000E+00
             5.9119999999999804E+00    0.0000000000000000E+00    0.0000000000000000E+00
             5.9119999999999804E+00    2.9549999999999934E+00    0.0000000000000000E+00
             5.9119999999999804E+00    5.9109999999999792E+00    0.0000000000000000E+00
             8.6699999999999697E+00    0.0000000000000000E+00    0.0000000000000000E+00
             8.6699999999999697E+00    2.9549999999999934E+00    0.0000000000000000E+00
             8.6699999999999697E+00    5.9109999999999792E+00    0.0000000000000000E+00
             1.1625999999999964E+01    0.0000000000000000E+00    0.0000000000000000E+00
             1.1625999999999964E+01    2.9549999999999934E+00    0.0000000000000000E+00
             1.1625999999999964E+01    5.9109999999999792E+00    0.0000000000000000E+00
             1.4779999999999951E+00    1.4779999999999951E+00    2.0899999999999945E+00
             1.4779999999999951E+00    4.4329999999999838E+00    2.0899999999999945E+00
             1.4779999999999951E+00    7.3889999999999780E+00    2.0899999999999945E+00
             4.4339999999999886E+00    1.4779999999999951E+00    2.0899999999999945E+00
             4.4339999999999886E+00    4.4329999999999838E+00    2.0899999999999945E+00
             4.4339999999999886E+00    7.3889999999999780E+00    2.0899999999999945E+00
             7.1919999999999789E+00    1.4779999999999951E+00    2.0899999999999945E+00
             7.1919999999999789E+00    4.4329999999999838E+00    2.0899999999999945E+00
             7.1919999999999789E+00    7.3889999999999780E+00    2.0899999999999945E+00
             1.0147999999999977E+01    1.4779999999999951E+00    2.0899999999999945E+00
             1.0147999999999977E+01    4.4329999999999838E+00    2.0899999999999945E+00
             1.0147999999999977E+01    7.3889999999999780E+00    2.0899999999999945E+00
             1.3103999999999964E+01    1.4779999999999951E+00    2.0899999999999945E+00
             1.3103999999999964E+01    4.4329999999999838E+00    2.0899999999999945E+00
             1.3103999999999964E+01    7.3889999999999780E+00    2.0899999999999945E+00
             0.0000000000000000E+00    0.0000000000000000E+00    4.1799999999999891E+00
             0.0000000000000000E+00    2.9549999999999934E+00    4.1799999999999891E+00
             0.0000000000000000E+00    5.9109999999999792E+00    4.1799999999999891E+00
             2.9559999999999902E+00    0.0000000000000000E+00    4.1799999999999891E+00
             2.9559999999999902E+00    2.9549999999999934E+00    4.1799999999999891E+00
             2.9559999999999902E+00    5.9109999999999792E+00    4.1799999999999891E+00
             5.9119999999999804E+00    0.0000000000000000E+00    4.1799999999999891E+00
             5.9119999999999804E+00    2.9549999999999934E+00    4.1799999999999891E+00
             5.9119999999999804E+00    5.9109999999999792E+00    4.1799999999999891E+00
             8.6699999999999697E+00    0.0000000000000000E+00    4.1799999999999891E+00
             8.6699999999999697E+00    2.9549999999999934E+00    4.1799999999999891E+00
             8.6699999999999697E+00    5.9109999999999792E+00    4.1799999999999891E+00
             1.1625999999999964E+01    0.0000000000000000E+00    4.1799999999999891E+00
             1.1625999999999964E+01    2.9549999999999934E+00    4.1799999999999891E+00
             1.1625999999999964E+01    5.9109999999999792E+00    4.1799999999999891E+00
             1.4779999999999951E+00    1.4779999999999951E+00    6.2699999999999783E+00
             1.4779999999999951E+00    4.4329999999999838E+00    6.2699999999999783E+00
             1.4779999999999951E+00    7.3889999999999780E+00    6.2699999999999783E+00
             4.4339999999999886E+00    1.4779999999999951E+00    6.2699999999999783E+00
             4.4339999999999886E+00    4.4329999999999838E+00    6.2699999999999783E+00
             4.4339999999999886E+00    7.3889999999999780E+00    6.2699999999999783E+00
             7.1919999999999789E+00    1.4779999999999951E+00    6.2699999999999783E+00
             7.1919999999999789E+00    4.4329999999999838E+00    6.2699999999999783E+00
             7.1919999999999789E+00    7.3889999999999780E+00    6.2699999999999783E+00
             1.0147999999999977E+01    1.4779999999999951E+00    6.2699999999999783E+00
             1.0147999999999977E+01    4.4329999999999838E+00    6.2699999999999783E+00
             1.0147999999999977E+01    7.3889999999999780E+00    6.2699999999999783E+00
             1.3103999999999964E+01    1.4779999999999951E+00    6.2699999999999783E+00
             1.3103999999999964E+01    4.4329999999999838E+00    6.2699999999999783E+00
             1.3103999999999964E+01    7.3889999999999780E+00    6.2699999999999783E+00
             0.0000000000000000E+00    0.0000000000000000E+00    8.3599999999999781E+00
             0.0000000000000000E+00    2.9549999999999934E+00    8.3599999999999781E+00
             0.0000000000000000E+00    5.9109999999999792E+00    8.3599999999999781E+00
             2.9559999999999902E+00    0.0000000000000000E+00    8.3599999999999781E+00
             2.9559999999999902E+00    2.9549999999999934E+00    8.3599999999999781E+00
             2.9559999999999902E+00    5.9109999999999792E+00    8.3599999999999781E+00
             5.9119999999999804E+00    0.0000000000000000E+00    8.3599999999999781E+00
             5.9119999999999804E+00    2.9549999999999934E+00    8.3599999999999781E+00
             5.9119999999999804E+00    5.9109999999999792E+00    8.3599999999999781E+00
             8.6699999999999697E+00    0.0000000000000000E+00    8.3599999999999781E+00
             8.6699999999999697E+00    2.9549999999999934E+00    8.3599999999999781E+00
             8.6699999999999697E+00    5.9109999999999792E+00    8.3599999999999781E+00
             1.1625999999999964E+01    0.0000000000000000E+00    8.3599999999999781E+00
             1.1625999999999964E+01    2.9549999999999934E+00    8.3599999999999781E+00
             1.1625999999999964E+01    5.9109999999999792E+00    8.3599999999999781E+00
             1.4779999999999951E+00    1.4779999999999951E+00    1.0449999999999976E+01
             1.4779999999999951E+00    4.4329999999999838E+00    1.0449999999999976E+01
             1.4779999999999951E+00    7.3889999999999780E+00    1.0449999999999976E+01
             4.4339999999999886E+00    1.4779999999999951E+00    1.0449999999999976E+01
             4.4339999999999886E+00    4.4329999999999838E+00    1.0449999999999976E+01
             4.4339999999999886E+00    7.3889999999999780E+00    1.0449999999999976E+01
             7.1919999999999789E+00    1.4779999999999951E+00    1.0449999999999976E+01
             7.1919999999999789E+00    4.4329999999999838E+00    1.0449999999999976E+01
             7.1919999999999789E+00    7.3889999999999780E+00    1.0449999999999976E+01
             1.0147999999999977E+01    1.4779999999999951E+00    1.0449999999999976E+01
             1.0147999999999977E+01    4.4329999999999838E+00    1.0449999999999976E+01
             1.0147999999999977E+01    7.3889999999999780E+00    1.0449999999999976E+01
             1.3103999999999964E+01    1.4779999999999951E+00    1.0449999999999976E+01
             1.3103999999999964E+01    4.4329999999999838E+00    1.0449999999999976E+01
             1.3103999999999964E+01    7.3889999999999780E+00    1.0449999999999976E+01
             4.8553999999999871E+00    5.9118999999999868E+00    1.2031799999999967E+01
             9.5279999999999667E+00    5.9136999999999809E+00    1.2033999999999969E+01
             7.1919999999999789E+00    5.9339999999999842E+00    1.2039999999999967E+01
             4.0673339927999859E+00    5.9059993219999845E+00    1.2687741368899966E+01
             1.0318905404799965E+01    5.9087793825999846E+00    1.2685747073199970E+01
             5.9989554221999848E+00    5.9152564165999841E+00    1.2792642411199974E+01
             8.3738707292999734E+00    5.9179777706999825E+00    1.2731457252199961E+01
             8.3227525761999743E+00    5.9051536094999815E+00    1.4080497642099962E+01
             5.9344285048999792E+00    5.8981604864999833E+00    1.4101749969599959E+01
             7.1039653576999795E+00    5.8899410688999820E+00    1.4828703219099957E+01
             7.2416021046999735E+00    5.8657702091999750E+00    1.6106466757299955E+01
             6.3118250322999776E+00    5.8547577070999832E+00    1.6539601306199952E+01
             9.1743570612999719E+00    5.8876302391999822E+00    1.4641017735299950E+01
             7.3119999999999772E+00    5.9339999999999842E+00    2.1042999999999957E+01
             5.8129999999999820E+00    7.4339999999999753E+00    2.2991999999999933E+01
             8.8129999999999704E+00    4.4339999999999886E+00    2.2991999999999933E+01
             5.8129999999999820E+00    4.4329999999999838E+00    2.2991999999999933E+01
             8.8129999999999704E+00    7.4339999999999753E+00    2.2991999999999933E+01
             1.4779999999999951E+00    1.4779999999999951E+00    2.5081999999999923E+01
             1.4779999999999951E+00    4.4329999999999838E+00    2.5081999999999923E+01
             1.4779999999999951E+00    7.3889999999999780E+00    2.5081999999999923E+01
             4.4339999999999886E+00    1.4779999999999951E+00    2.5081999999999923E+01
             4.4339999999999886E+00    4.4329999999999838E+00    2.5081999999999923E+01
             4.4339999999999886E+00    7.3889999999999780E+00    2.5081999999999923E+01
             7.1919999999999789E+00    1.4779999999999951E+00    2.5081999999999923E+01
             7.1919999999999789E+00    4.4329999999999838E+00    2.5081999999999923E+01
             7.1919999999999789E+00    7.3889999999999780E+00    2.5081999999999923E+01
             1.0147999999999977E+01    1.4779999999999951E+00    2.5081999999999923E+01
             1.0147999999999977E+01    4.4329999999999838E+00    2.5081999999999923E+01
             1.0147999999999977E+01    7.3889999999999780E+00    2.5081999999999923E+01
             1.3103999999999964E+01    1.4779999999999951E+00    2.5081999999999923E+01
             1.3103999999999964E+01    4.4329999999999838E+00    2.5081999999999923E+01
             1.3103999999999964E+01    7.3889999999999780E+00    2.5081999999999923E+01
             0.0000000000000000E+00    0.0000000000000000E+00    2.7171999999999922E+01
             0.0000000000000000E+00    2.9549999999999934E+00    2.7171999999999922E+01
             0.0000000000000000E+00    5.9109999999999792E+00    2.7171999999999922E+01
             2.9559999999999902E+00    0.0000000000000000E+00    2.7171999999999922E+01
             2.9559999999999902E+00    2.9549999999999934E+00    2.7171999999999922E+01
             2.9559999999999902E+00    5.9109999999999792E+00    2.7171999999999922E+01
             5.9119999999999804E+00    0.0000000000000000E+00    2.7171999999999922E+01
             5.9119999999999804E+00    2.9549999999999934E+00    2.7171999999999922E+01
             5.9119999999999804E+00    5.9109999999999792E+00    2.7171999999999922E+01
             8.6699999999999697E+00    0.0000000000000000E+00    2.7171999999999922E+01
             8.6699999999999697E+00    2.9549999999999934E+00    2.7171999999999922E+01
             8.6699999999999697E+00    5.9109999999999792E+00    2.7171999999999922E+01
             1.1625999999999964E+01    0.0000000000000000E+00    2.7171999999999922E+01
             1.1625999999999964E+01    2.9549999999999934E+00    2.7171999999999922E+01
             1.1625999999999964E+01    5.9109999999999792E+00    2.7171999999999922E+01
             1.4779999999999951E+00    1.4779999999999951E+00    2.9261999999999929E+01
             1.4779999999999951E+00    4.4329999999999838E+00    2.9261999999999929E+01
             1.4779999999999951E+00    7.3889999999999780E+00    2.9261999999999929E+01
             4.4339999999999886E+00    1.4779999999999951E+00    2.9261999999999929E+01
             4.4339999999999886E+00    4.4329999999999838E+00    2.9261999999999929E+01
             4.4339999999999886E+00    7.3889999999999780E+00    2.9261999999999929E+01
             7.1919999999999789E+00    1.4779999999999951E+00    2.9261999999999929E+01
             7.1919999999999789E+00    4.4329999999999838E+00    2.9261999999999929E+01
             7.1919999999999789E+00    7.3889999999999780E+00    2.9261999999999929E+01
             1.0147999999999977E+01    1.4779999999999951E+00    2.9261999999999929E+01
             1.0147999999999977E+01    4.4329999999999838E+00    2.9261999999999929E+01
             1.0147999999999977E+01    7.3889999999999780E+00    2.9261999999999929E+01
             1.3103999999999964E+01    1.4779999999999951E+00    2.9261999999999929E+01
             1.3103999999999964E+01    4.4329999999999838E+00    2.9261999999999929E+01
             1.3103999999999964E+01    7.3889999999999780E+00    2.9261999999999929E+01
             0.0000000000000000E+00    0.0000000000000000E+00    3.1351999999999936E+01
             0.0000000000000000E+00    2.9549999999999934E+00    3.1351999999999936E+01
             0.0000000000000000E+00    5.9109999999999792E+00    3.1351999999999936E+01
             2.9559999999999902E+00    0.0000000000000000E+00    3.1351999999999936E+01
             2.9559999999999902E+00    2.9549999999999934E+00    3.1351999999999936E+01
             2.9559999999999902E+00    5.9109999999999792E+00    3.1351999999999936E+01
             5.9119999999999804E+00    0.0000000000000000E+00    3.1351999999999936E+01
             5.9119999999999804E+00    2.9549999999999934E+00    3.1351999999999936E+01
             5.9119999999999804E+00    5.9109999999999792E+00    3.1351999999999936E+01
             8.6699999999999697E+00    0.0000000000000000E+00    3.1351999999999936E+01
             8.6699999999999697E+00    2.9549999999999934E+00    3.1351999999999936E+01
             8.6699999999999697E+00    5.9109999999999792E+00    3.1351999999999936E+01
             1.1625999999999964E+01    0.0000000000000000E+00    3.1351999999999936E+01
             1.1625999999999964E+01    2.9549999999999934E+00    3.1351999999999936E+01
             1.1625999999999964E+01    5.9109999999999792E+00    3.1351999999999936E+01
             1.4779999999999951E+00    1.4779999999999951E+00    3.3441999999999886E+01
             1.4779999999999951E+00    4.4329999999999838E+00    3.3441999999999886E+01
             1.4779999999999951E+00    7.3889999999999780E+00    3.3441999999999886E+01
             4.4339999999999886E+00    1.4779999999999951E+00    3.3441999999999886E+01
             4.4339999999999886E+00    4.4329999999999838E+00    3.3441999999999886E+01
             4.4339999999999886E+00    7.3889999999999780E+00    3.3441999999999886E+01
             7.1919999999999789E+00    1.4779999999999951E+00    3.3441999999999886E+01
             7.1919999999999789E+00    4.4329999999999838E+00    3.3441999999999886E+01
             7.1919999999999789E+00    7.3889999999999780E+00    3.3441999999999886E+01
             1.0147999999999977E+01    1.4779999999999951E+00    3.3441999999999886E+01
             1.0147999999999977E+01    4.4329999999999838E+00    3.3441999999999886E+01
             1.0147999999999977E+01    7.3889999999999780E+00    3.3441999999999886E+01
             1.3103999999999964E+01    1.4779999999999951E+00    3.3441999999999886E+01
             1.3103999999999964E+01    4.4329999999999838E+00    3.3441999999999886E+01
             1.3103999999999964E+01    7.3889999999999780E+00    3.3441999999999886E+01
       &END COORD
       &VELOCITY
             0.0000000000000000E+00    0.0000000000000000E+00    0.0000000000000000E+00
             0.0000000000000000E+00    0.0000000000000000E+00    0.0000000000000000E+00
             0.0000000000000000E+00    0.0000000000000000E+00    0.0000000000000000E+00
             0.0000000000000000E+00    0.0000000000000000E+00    0.0000000000000000E+00
             0.0000000000000000E+00    0.0000000000000000E+00    0.0000000000000000E+00
             0.0000000000000000E+00    0.0000000000000000E+00    0.0000000000000000E+00
             0.0000000000000000E+00    0.0000000000000000E+00    0.0000000000000000E+00
             0.0000000000000000E+00    0.0000000000000000E+00    0.0000000000000000E+00
             0.0000000000000000E+00    0.0000000000000000E+00    0.0000000000000000E+00
             0.0000000000000000E+00    0.0000000000000000E+00    0.0000000000000000E+00
             0.0000000000000000E+00    0.0000000000000000E+00    0.0000000000000000E+00
             0.0000000000000000E+00    0.0000000000000000E+00    0.0000000000000000E+00
             0.0000000000000000E+00    0.0000000000000000E+00    0.0000000000000000E+00
             0.0000000000000000E+00    0.0000000000000000E+00    0.0000000000000000E+00
             0.0000000000000000E+00    0.0000000000000000E+00    0.0000000000000000E+00
             0.0000000000000000E+00    0.0000000000000000E+00    0.0000000000000000E+00
             0.0000000000000000E+00    0.0000000000000000E+00    0.0000000000000000E+00
             0.0000000000000000E+00    0.0000000000000000E+00    0.0000000000000000E+00
             0.0000000000000000E+00    0.0000000000000000E+00    0.0000000000000000E+00
             0.0000000000000000E+00    0.0000000000000000E+00    0.0000000000000000E+00
             0.0000000000000000E+00    0.0000000000000000E+00    0.0000000000000000E+00
             0.0000000000000000E+00    0.0000000000000000E+00    0.0000000000000000E+00
             0.0000000000000000E+00    0.0000000000000000E+00    0.0000000000000000E+00
             0.0000000000000000E+00    0.0000000000000000E+00    0.0000000000000000E+00
             0.0000000000000000E+00    0.0000000000000000E+00    0.0000000000000000E+00
             0.0000000000000000E+00    0.0000000000000000E+00    0.0000000000000000E+00
             0.0000000000000000E+00    0.0000000000000000E+00    0.0000000000000000E+00
             0.0000000000000000E+00    0.0000000000000000E+00    0.0000000000000000E+00
             0.0000000000000000E+00    0.0000000000000000E+00    0.0000000000000000E+00
             0.0000000000000000E+00    0.0000000000000000E+00    0.0000000000000000E+00
             0.0000000000000000E+00    0.0000000000000000E+00    0.0000000000000000E+00
             0.0000000000000000E+00    0.0000000000000000E+00    0.0000000000000000E+00
             0.0000000000000000E+00    0.0000000000000000E+00    0.0000000000000000E+00
             0.0000000000000000E+00    0.0000000000000000E+00    0.0000000000000000E+00
             0.0000000000000000E+00    0.0000000000000000E+00    0.0000000000000000E+00
             0.0000000000000000E+00    0.0000000000000000E+00    0.0000000000000000E+00
             0.0000000000000000E+00    0.0000000000000000E+00    0.0000000000000000E+00
             0.0000000000000000E+00    0.0000000000000000E+00    0.0000000000000000E+00
             0.0000000000000000E+00    0.0000000000000000E+00    0.0000000000000000E+00
             0.0000000000000000E+00    0.0000000000000000E+00    0.0000000000000000E+00
             0.0000000000000000E+00    0.0000000000000000E+00    0.0000000000000000E+00
             0.0000000000000000E+00    0.0000000000000000E+00    0.0000000000000000E+00
             0.0000000000000000E+00    0.0000000000000000E+00    0.0000000000000000E+00
             0.0000000000000000E+00    0.0000000000000000E+00    0.0000000000000000E+00
             0.0000000000000000E+00    0.0000000000000000E+00    0.0000000000000000E+00
             0.0000000000000000E+00    0.0000000000000000E+00    0.0000000000000000E+00
             0.0000000000000000E+00    0.0000000000000000E+00    0.0000000000000000E+00
             0.0000000000000000E+00    0.0000000000000000E+00    0.0000000000000000E+00
             0.0000000000000000E+00    0.0000000000000000E+00    0.0000000000000000E+00
             0.0000000000000000E+00    0.0000000000000000E+00    0.0000000000000000E+00
             0.0000000000000000E+00    0.0000000000000000E+00    0.0000000000000000E+00
             0.0000000000000000E+00    0.0000000000000000E+00    0.0000000000000000E+00
             0.0000000000000000E+00    0.0000000000000000E+00    0.0000000000000000E+00
             0.0000000000000000E+00    0.0000000000000000E+00    0.0000000000000000E+00
             0.0000000000000000E+00    0.0000000000000000E+00    0.0000000000000000E+00
             0.0000000000000000E+00    0.0000000000000000E+00    0.0000000000000000E+00
             0.0000000000000000E+00    0.0000000000000000E+00    0.0000000000000000E+00
             0.0000000000000000E+00    0.0000000000000000E+00    0.0000000000000000E+00
             0.0000000000000000E+00    0.0000000000000000E+00    0.0000000000000000E+00
             0.0000000000000000E+00    0.0000000000000000E+00    0.0000000000000000E+00
             0.0000000000000000E+00    0.0000000000000000E+00    0.0000000000000000E+00
             0.0000000000000000E+00    0.0000000000000000E+00    0.0000000000000000E+00
             0.0000000000000000E+00    0.0000000000000000E+00    0.0000000000000000E+00
             0.0000000000000000E+00    0.0000000000000000E+00    0.0000000000000000E+00
             0.0000000000000000E+00    0.0000000000000000E+00    0.0000000000000000E+00
             0.0000000000000000E+00    0.0000000000000000E+00    0.0000000000000000E+00
             0.0000000000000000E+00    0.0000000000000000E+00    0.0000000000000000E+00
             0.0000000000000000E+00    0.0000000000000000E+00    0.0000000000000000E+00
             0.0000000000000000E+00    0.0000000000000000E+00    0.0000000000000000E+00
             0.0000000000000000E+00    0.0000000000000000E+00    0.0000000000000000E+00
             0.0000000000000000E+00    0.0000000000000000E+00    0.0000000000000000E+00
             0.0000000000000000E+00    0.0000000000000000E+00    0.0000000000000000E+00
             0.0000000000000000E+00    0.0000000000000000E+00    0.0000000000000000E+00
             0.0000000000000000E+00    0.0000000000000000E+00    0.0000000000000000E+00
             0.0000000000000000E+00    0.0000000000000000E+00    0.0000000000000000E+00
             0.0000000000000000E+00    0.0000000000000000E+00    0.0000000000000000E+00
             0.0000000000000000E+00    0.0000000000000000E+00    0.0000000000000000E+00
             0.0000000000000000E+00    0.0000000000000000E+00    0.0000000000000000E+00
             0.0000000000000000E+00    0.0000000000000000E+00    0.0000000000000000E+00
             0.0000000000000000E+00    0.0000000000000000E+00    0.0000000000000000E+00
             0.0000000000000000E+00    0.0000000000000000E+00    0.0000000000000000E+00
             0.0000000000000000E+00    0.0000000000000000E+00    0.0000000000000000E+00
             0.0000000000000000E+00    0.0000000000000000E+00    0.0000000000000000E+00
             0.0000000000000000E+00    0.0000000000000000E+00    0.0000000000000000E+00
             0.0000000000000000E+00    0.0000000000000000E+00    0.0000000000000000E+00
             0.0000000000000000E+00    0.0000000000000000E+00    0.0000000000000000E+00
             0.0000000000000000E+00    0.0000000000000000E+00    0.0000000000000000E+00
             0.0000000000000000E+00    0.0000000000000000E+00    0.0000000000000000E+00
             0.0000000000000000E+00    0.0000000000000000E+00    0.0000000000000000E+00
             0.0000000000000000E+00    0.0000000000000000E+00    0.0000000000000000E+00
             0.0000000000000000E+00    0.0000000000000000E+00    0.0000000000000000E+00
             0.0000000000000000E+00    0.0000000000000000E+00    0.0000000000000000E+00
             0.0000000000000000E+00    0.0000000000000000E+00    0.0000000000000000E+00
             0.0000000000000000E+00    0.0000000000000000E+00    0.0000000000000000E+00
             0.0000000000000000E+00    0.0000000000000000E+00    0.0000000000000000E+00
             0.0000000000000000E+00    0.0000000000000000E+00    0.0000000000000000E+00
             0.0000000000000000E+00    0.0000000000000000E+00    0.0000000000000000E+00
             0.0000000000000000E+00    0.0000000000000000E+00    0.0000000000000000E+00
             0.0000000000000000E+00    0.0000000000000000E+00    0.0000000000000000E+00
             0.0000000000000000E+00    0.0000000000000000E+00    0.0000000000000000E+00
             0.0000000000000000E+00    0.0000000000000000E+00    0.0000000000000000E+00
             0.0000000000000000E+00    0.0000000000000000E+00    0.0000000000000000E+00
             0.0000000000000000E+00    0.0000000000000000E+00    0.0000000000000000E+00
             0.0000000000000000E+00    0.0000000000000000E+00    0.0000000000000000E+00
             0.0000000000000000E+00    0.0000000000000000E+00    0.0000000000000000E+00
             0.0000000000000000E+00    0.0000000000000000E+00    0.0000000000000000E+00
             0.0000000000000000E+00    0.0000000000000000E+00    0.0000000000000000E+00
             0.0000000000000000E+00    0.0000000000000000E+00    0.0000000000000000E+00
             0.0000000000000000E+00    0.0000000000000000E+00    0.0000000000000000E+00
             0.0000000000000000E+00    0.0000000000000000E+00    0.0000000000000000E+00
             0.0000000000000000E+00    0.0000000000000000E+00    0.0000000000000000E+00
             0.0000000000000000E+00    0.0000000000000000E+00    0.0000000000000000E+00
             0.0000000000000000E+00    0.0000000000000000E+00    0.0000000000000000E+00
             0.0000000000000000E+00    0.0000000000000000E+00    0.0000000000000000E+00
             0.0000000000000000E+00    0.0000000000000000E+00    0.0000000000000000E+00
             0.0000000000000000E+00    0.0000000000000000E+00    0.0000000000000000E+00
             0.0000000000000000E+00    0.0000000000000000E+00    0.0000000000000000E+00
             0.0000000000000000E+00    0.0000000000000000E+00    0.0000000000000000E+00
             0.0000000000000000E+00    0.0000000000000000E+00    0.0000000000000000E+00
             0.0000000000000000E+00    0.0000000000000000E+00    0.0000000000000000E+00
             0.0000000000000000E+00    0.0000000000000000E+00    0.0000000000000000E+00
             0.0000000000000000E+00    0.0000000000000000E+00    0.0000000000000000E+00
             0.0000000000000000E+00    0.0000000000000000E+00    0.0000000000000000E+00
             0.0000000000000000E+00    0.0000000000000000E+00    0.0000000000000000E+00
             0.0000000000000000E+00    0.0000000000000000E+00    0.0000000000000000E+00
             0.0000000000000000E+00    0.0000000000000000E+00    0.0000000000000000E+00
             0.0000000000000000E+00    0.0000000000000000E+00    0.0000000000000000E+00
             0.0000000000000000E+00    0.0000000000000000E+00    0.0000000000000000E+00
             0.0000000000000000E+00    0.0000000000000000E+00    0.0000000000000000E+00
             0.0000000000000000E+00    0.0000000000000000E+00    0.0000000000000000E+00
             0.0000000000000000E+00    0.0000000000000000E+00    0.0000000000000000E+00
             0.0000000000000000E+00    0.0000000000000000E+00    0.0000000000000000E+00
             0.0000000000000000E+00    0.0000000000000000E+00    0.0000000000000000E+00
             0.0000000000000000E+00    0.0000000000000000E+00    0.0000000000000000E+00
             0.0000000000000000E+00    0.0000000000000000E+00    0.0000000000000000E+00
             0.0000000000000000E+00    0.0000000000000000E+00    0.0000000000000000E+00
             0.0000000000000000E+00    0.0000000000000000E+00    0.0000000000000000E+00
             0.0000000000000000E+00    0.0000000000000000E+00    0.0000000000000000E+00
             0.0000000000000000E+00    0.0000000000000000E+00    0.0000000000000000E+00
             0.0000000000000000E+00    0.0000000000000000E+00    0.0000000000000000E+00
             0.0000000000000000E+00    0.0000000000000000E+00    0.0000000000000000E+00
             0.0000000000000000E+00    0.0000000000000000E+00    0.0000000000000000E+00
             0.0000000000000000E+00    0.0000000000000000E+00    0.0000000000000000E+00
             0.0000000000000000E+00    0.0000000000000000E+00    0.0000000000000000E+00
             0.0000000000000000E+00    0.0000000000000000E+00    0.0000000000000000E+00