         0      -5729.782607898      -5728.587757958      -5500.720043584      -5728.570439717      -5729.737335719      -4214.310050716      -5729.772184682          1.702688725          1.702688725          1.702688725          1.702688725          3.368183632          3.368183632
         1      -5729.782607899      -5728.587757958      -5728.799004567      -5728.570439718      -5729.737335719      -4215.031230237      -5729.772184682          1.702688725          2.626623097          2.626623097          1.702688725          3.368183632          3.368183632
         2      -5729.782607899      -5728.587843851      -5728.799026846      -5728.570524968      -5729.737336491      -5725.074662421      -5729.772184683          1.702680680          2.626627988          2.626627430          1.702680095          3.917227288          3.917228025
         3      -5729.782607899      -5729.170723761      -5728.985164917      -5729.148272002      -5729.745328076      -5728.988069188      -5729.772184683          1.645078314          2.684606999          2.678588311          1.639258567          4.549636162          4.561172663
         4      -5729.782607899      -5729.362123143      -5729.191243482      -5729.337832064      -5729.794007518      -5729.239785376      -5729.772184683          1.769061167          2.926775978          2.887253484          1.752785530          4.349989528          4.480569698
         5      -5729.782607898      -5729.481610526      -5729.286041505      -5729.469606942      -5729.830785904      -5729.310314759      -5729.772184682          1.706740572          2.884797275          2.857200597          1.690325078          4.191461773          4.459129538
         6      -5729.782607899      -5729.581605773      -5729.338472398      -5729.582607195      -5729.846166059      -5729.364817947      -5729.772184682          1.765460981          2.844167399          2.819240169          1.812520722          4.040010419          4.441335224
         7      -5729.782607899      -5729.604655266      -5729.342174806      -5729.608319590      -5729.846501014      -5729.388913489      -5729.772184682          1.709098071          2.771563732          2.758755635          1.781498276          3.985715131          4.372419221
         8      -5729.782607899      -5729.635218292      -5729.366753154      -5729.650362293      -5729.852414342      -5729.426962189      -5729.772184682          1.779185648          2.706927304          2.717193375          1.935009605          3.863013695          4.307908914
         9      -5729.782607898      -5729.681675367      -5729.416584071      -5729.714228728      -5729.863353697      -5729.490248666      -5729.772184683          2.066654830          2.633148821          2.710157359          2.458449948          3.667792611          4.217724689
        10      -5729.782607899      -5729.686513024      -5729.430523187      -5729.726062576      -5729.870813896      -5729.506953179      -5729.772184682          2.149818804          2.623458260          2.734563999          2.595756875          3.666507546          4.210790548
        11      -5729.782607898      -5729.657840360      -5729.465909482      -5729.741705714      -5729.882596317      -5729.570062141      -5729.772184682          2.689048947          2.534572977          2.888010324          3.625764640          3.967344324          4.325496836
        12      -5729.782607899      -5729.691539395      -5729.483704483      -5729.787982241      -5729.895036261      -5729.589613205      -5729.772184682          2.680013733          2.536406982          2.923718249          3.580688421          3.990835104          4.332204477
        13      -5729.782607899      -5729.701777266      -5729.487978312      -5729.809569380      -5729.902286971      -5729.596296591      -5729.772184682          2.669068476          2.533218567          3.012244604          3.536628786          3.974764031          4.311896341
        14      -5729.782607899      -5729.708711378      -5729.492518767      -5729.822661921      -5729.902338413      -5729.602541026      -5729.772184682          2.676377447          2.532238777          3.068961873          3.536300373          4.008131544          4.318952734
        15      -5729.782607899      -5729.715816938      -5729.494366179      -5729.836300743      -5729.900540685      -5729.607269958      -5729.772184682          2.687720458          2.529549236          3.145545417          3.564720706          4.013501711          4.309665424
        16      -5729.782607899      -5729.720434906      -5729.498906912      -5729.843509839      -5729.899645809      -5729.610753639      -5729.772184682          2.692265444          2.528471039          3.173373761          3.559938351          4.024248220          4.310931782
        17      -5729.782607899      -5729.771540049      -5729.525407429      -5729.932930329      -5729.845122826      -5729.635448281      -5729.772184682          2.947043751          2.513087579          3.846589546          3.775947457          4.235786559          4.410737304
        18      -5729.782607899      -5729.787057346      -5729.530115315      -5729.940249656      -5729.842176507      -5729.644048298      -5729.772184682          2.947947118          2.536374773          3.846472962          3.784548804          4.196157484          4.390032530
        19      -5729.782607899      -5729.796925728      -5729.533399462      -5729.942714436      -5729.837939148      -5729.646398606      -5729.772184682          2.958478380          2.573596954          3.850171417          3.810267278          4.198835393          4.392905542
        20      -5729.782607899      -5729.806553224      -5729.534846061      -5729.945103502      -5729.831697479      -5729.648531001      -5729.772184682          2.982551839          2.634125283          3.844271070          3.827854267          4.211002712          4.401270154
        21      -5729.782607899      -5729.811797247      -5729.538629073      -5729.946406915      -5729.828933191      -5729.650716085      -5729.772184683          2.994728361          2.663284028          3.840337180          3.837518971          4.213384896          4.403312531
        22      -5729.782607898      -5729.876440819      -5729.486248933      -5729.959284893      -5729.737126245      -5729.674933842      -5729.772184682          3.505502827          3.600540927          3.761647896          4.226857106          4.443937686          4.600863042
        23      -5729.782607899      -5729.877341397      -5729.524887325      -5729.969219288      -5729.735777973      -5729.683521837      -5729.772184682          3.524912738          3.772524800          3.595026725          4.215571580          4.421896635          4.567109849
        24      -5729.782607899      -5729.917542579      -5729.537295478      -5729.978729233      -5729.733490997      -5729.688869609      -5729.772184682          3.537860940          3.757199962          3.633176459          4.237228897          4.430476707          4.583298394
        25      -5729.782607898      -5729.921636501      -5729.540178928      -5729.985045998      -5729.730622370      -5729.692420877      -5729.772184682          3.585419360          3.766087821          3.659079880          4.250947901          4.442643606          4.605722619
        26      -5729.782607898      -5729.922698991      -5729.544265848      -5729.988089176      -5729.729066727      -5729.696804915      -5729.772184682          3.611606254          3.777104465          3.668208609          4.254856832          4.447565019          4.615564848
        27      -5729.782607899      -5729.926814367      -5729.548910042      -5730.005466443      -5729.712517927      -5729.720507187      -5729.772184682          3.888120380          3.832065707          3.830914204          4.313425581          4.517365390          4.764518971
        28      -5729.782607898      -5729.931890838      -5729.554620504      -5730.008646862      -5729.710851127      -5729.726001041      -5729.772184682          3.919936531          3.844073156          3.864830376          4.298919601          4.520292089          4.762472376
        29      -5729.782607898      -5729.936920005      -5729.555465474      -5730.011249460      -5729.707567517      -5729.733525989      -5729.772184682          3.976888577          3.857777108          3.908346678          4.306821211          4.523995235          4.778379920
        30      -5729.782607899      -5729.941308810      -5729.557840622      -5730.013008060      -5729.705657441      -5729.739520738      -5729.772184683          4.016950745          3.867256590          3.940834319          4.312595281          4.528531924          4.786961990
        31      -5729.782607898      -5729.946674184      -5729.560833276      -5730.014838263      -5729.703822850      -5729.746486456      -5729.772184683          4.064790740          3.882682938          3.982478948          4.328141291          4.535074168          4.801113871
        32      -5729.782607898      -5729.952212466      -5729.562318104      -5730.016453167      -5729.702776065      -5729.752647782      -5729.772184682          4.109676776          3.899542858          4.022364393          4.343105086          4.543742640          4.814339776
        33      -5729.782607898      -5729.954957793      -5729.568907326      -5730.017195591      -5729.702537205      -5729.755582823      -5729.772184682          4.130301359          3.907569800          4.041395990          4.351220889          4.548088173          4.821288804
        34      -5729.782607898      -5730.009262784      -5729.418894140      -5730.028937879      -5729.702077364      -5729.670594373      -5729.772184682          4.720216827          4.240143683          4.671477448          4.628813725          4.743176383          5.109893324
        35      -5729.782607899      -5730.014676868      -5729.353248502      -5730.030046831      -5729.709851336      -5729.666841324      -5729.772184683          4.717272816          4.175907234          4.829696576          4.553120562          4.785972386          5.055343899
        36      -5729.782607898      -5730.018609497      -5729.482951490      -5730.031110632      -5729.712966482      -5729.738659295      -5729.772184682          4.715986231          4.156800431          4.831071307          4.517885381          4.871382334          5.168824671
        37      -5729.782607898      -5730.023007087      -5729.557345506      -5730.032109407      -5729.713890433      -5729.773505915      -5729.772184682          4.718140356          4.149813814          4.842736715          4.513587061          4.881974165          5.194822959
        38      -5729.782607899      -5730.025211322      -5729.570617038      -5730.032586896      -5729.713701514      -5729.783997765      -5729.772184682          4.719115211          4.131762021          4.847394386          4.533211268          4.881932858          5.207312897
        39      -5729.782607899      -5730.032890575      -5729.574801428      -5730.034030752      -5729.714256029      -5729.783957756      -5729.772184682          4.720719801          4.102216973          4.897701831          4.611704283          4.898923795          5.234515647
        40      -5729.782607899      -5730.035458487      -5729.577083518      -5730.034507707      -5729.715115557      -5729.787962332      -5729.772184683          4.713320035          4.099001704          4.924585541          4.633736404          4.908987044          5.256464770
        41      -5729.782607899      -5730.038596780      -5729.576927946      -5730.035101712      -5729.716353611      -5729.787468010      -5729.772184683          4.700367152          4.098218028          4.962407660          4.676936196          4.926258857          5.276689822
        42      -5729.782607899      -5730.039147030      -5729.578716390      -5730.035273782      -5729.716701912      -5729.787950028      -5729.772184682          4.683563907          4.107301370          4.963972967          4.676218566          4.931020451          5.282412968
        43      -5729.782607898      -5730.041939133      -5729.580067907      -5730.035915226      -5729.718283920      -5729.787246862      -5729.772184682          4.659223861          4.119399702          4.988457325          4.721686111          4.952637518          5.301601056
        44      -5729.782607899      -5730.043233185      -5729.583924669      -5730.036233966      -5729.719017666      -5729.788637449      -5729.772184682          4.650066750          4.122655287          4.996508955          4.746829673          4.963199182          5.307761314
        45      -5729.782607899      -5730.049435070      -5729.592569560      -5730.038474100      -5729.724644532      -5729.770155631      -5729.772184682          4.569580943          4.228674341          5.126222094          4.984796535          5.099023706          5.395996174
        46      -5729.782607898      -5730.050066480      -5729.606882520      -5730.038839510      -5729.726607112      -5729.783991209      -5729.772184682          4.555434440          4.234940234          5.145889471          4.974525640          5.108717860          5.431680456
        47      -5729.782607898      -5730.050954856      -5729.616500279      -5730.039400572      -5729.728017623      -5729.783297788      -5729.772184683          4.531751057          4.266515899          5.183683923          4.990033032          5.130699653          5.454624213
        48      -5729.782607898      -5730.051454380      -5729.623610542      -5730.039733788      -5729.728909503      -5729.784424297      -5729.772184682          4.519423769          4.286280779          5.207426606          5.010243663          5.147437585          5.470788440
        49      -5729.782607898      -5730.052081174      -5729.631918922      -5730.040181907      -5729.730213279      -5729.783066824      -5729.772184682          4.504349223          4.320344784          5.244218456          5.036276991          5.168864455          5.484799476
        50      -5729.782607899      -5730.052318698      -5729.636984847      -5730.040348383      -5729.730766127      -5729.786264080      -5729.772184682          4.499855720          4.331298592          5.258719270          5.047308192          5.177697149          5.492677842
        51      -5729.782607899      -5730.053602970      -5729.689041272      -5730.043320144      -5729.748691074      -5729.768826718      -5729.772184682          4.407097403          4.968983346          5.861591562          5.435260943          5.502743145          5.653040237
        52      -5729.782607898      -5730.054579874      -5729.716651458      -5730.042927624      -5729.753542036      -5729.775557414      -5729.772184682          4.432028883          4.924519633          5.776528529          5.402102681          5.508943557          5.684314648
        53      -5729.782607898      -5730.055392274      -5729.724122351      -5730.042724910      -5729.754884264      -5729.782550940      -5729.772184682          4.457408217          4.934893381          5.781105200          5.410082089          5.515819127          5.699039708
        54      -5729.782607899      -5730.056926800      -5729.728989196      -5730.042238475      -5729.757578909      -5729.780482356      -5729.772184682          4.513340172          4.950345581          5.783406586          5.442897934          5.522888630          5.689122361
        55      -5729.782607899      -5730.057346632      -5729.733009972      -5730.042161791      -5729.758600334      -5729.785036463      -5729.772184682          4.530713797          4.952678423          5.795534413          5.449570164          5.525589466          5.687218728
        56      -5729.782607899      -5730.064789592      -5729.725481284      -5730.033360243      -5729.794944817      -5729.772720613      -5729.772184682          5.083502227          5.092271513          6.182937930          5.879653444          5.679842327          5.506588172
        57      -5729.782607898      -5730.065510877      -5729.747633514      -5730.033300564      -5729.807267019      -5729.778835166      -5729.772184682          5.097793004          4.997882094          6.159354851          5.812068088          5.680822407          5.521517457
        58      -5729.782607898      -5730.066150794      -5729.750821187      -5730.032871568      -5729.813199422      -5729.789179931      -5729.772184682          5.108173604          4.990282694          6.186382632          5.796391081          5.640103782          5.533519685
        59      -5729.782607899      -5730.067069253      -5729.751706231      -5730.031436585      -5729.823885405      -5729.783645461      -5729.772184682          5.121992812          4.960048957          6.243388756          5.784852552          5.630587539          5.548421919
        60      -5729.782607899      -5730.067379249      -5729.751145060      -5730.030209038      -5729.829288961      -5729.796021216      -5729.772184682          5.123669548          4.950443873          6.281968072          5.784996358          5.596730320          5.553755922
        61      -5729.782607898      -5730.067524598      -5729.681104830      -5729.999338522      -5729.871885924      -5729.520046129      -5729.772184682          5.158424295          4.965639861          6.898195413          5.902921605          5.579451331          5.633905109
        62      -5729.782607899      -5730.067738665      -5729.699348560      -5729.996654576      -5729.891283894      -5729.693800524      -5729.772184682          5.153151010          4.963996790          6.817905022          5.844958128          5.577935015          5.639702362
        63      -5729.782607898      -5730.067877458      -5729.721083253      -5729.990965115      -5729.900289063      -5729.789248969      -5729.772184682          5.143029281          4.962101988          6.652383795          5.766955136          5.559439552          5.613705194
        64      -5729.782607899      -5730.067927683      -5729.712549370      -5729.983559424      -5729.903918125      -5729.803019065      -5729.772184682          5.130336835          4.917627107          6.681495655          5.727014354          5.610508090          5.617702786
        65      -5729.782607898      -5730.067783947      -5729.697985484      -5729.969901166      -5729.906331812      -5729.789605781      -5729.772184682          5.112131997          4.885147288          6.798181826          5.635662544          5.561440229          5.626777381
        66      -5729.782607899      -5730.067635399      -5729.697620587      -5729.957369197      -5729.907805197      -5729.804574852      -5729.772184682          5.101485936          4.864383327          6.834702565          5.598389143          5.576999790          5.631341614
        67      -5729.782607899      -5730.067528800      -5729.704127574      -5729.948259858      -5729.907996072      -5729.811244416      -5729.772184682          5.095345019          4.860006930          6.845312780          5.555695826          5.588536309          5.630149571
        68      -5729.782607899      -5730.067079351      -5729.629239555      -5729.907843965      -5729.907779605      -5729.789924712      -5729.772184683          5.067173774          4.901566697          6.974082941          5.396794473          5.475382106          5.630335424
        69      -5729.782607899      -5730.067060009      -5729.639596386      -5729.899435378      -5729.908379381      -5729.812589575      -5729.772184683          5.065474816          4.949983714          7.130382346          5.363942122          5.507768633          5.627607420
        70      -5729.782607899      -5730.067033491      -5729.577317125      -5729.753404356      -5729.899684132      -5729.644690056      -5729.772184682          5.056611719          5.617357250          7.874025186          5.128694605          5.558685988          5.610907862
        71      -5729.782607899      -5730.067849780      -5729.624996185      -5729.716378324      -5729.901087274      -5729.643655697      -5729.772184683          5.078939396          5.621378774          7.793058559          5.229797376          5.379486838          5.595313585
