 # Version information for this restart file 
 # current date 2024-01-12 14:24:50.688
 # current working dir /gpfs/home/cahart/transport/melamine/au_from-h2/ci-neb/ts2/dft_leads-sz_tip-dzvp_surf-dzvp_kpoints-2-4-20_replicas-7
 # Program compiled at                              Thu 21 Sep 19:20:17 BST 2023
 # Program compiled on                                           hx1-c12-login-1
 # Program compiled for                                                    local
 # Source code revision number                                       git:5518aa6
 &GLOBAL
   EXTENDED_FFT_LENGTHS  T
   PRINT_LEVEL  MEDIUM
   PROJECT_NAME 2_dft_wfn-r-0
   OUTPUT_FILE_NAME 2_dft_wfn-r-0.out
   RUN_TYPE  BAND
 &END GLOBAL
 &MOTION
   &BAND
     NPROC_REP  64
     BAND_TYPE  CI-NEB
     NUMBER_OF_REPLICA  7
     K_SPRING     5.0000000000000003E-02
     &CI_NEB
       NSTEPS_IT  5
     &END CI_NEB
     &OPTIMIZE_BAND
       OPT_TYPE  DIIS
       &DIIS
         MAX_STEPS  1000
       &END DIIS
     &END OPTIMIZE_BAND
     &REPLICA
       &COORD
             0.0000000000000000E+00    0.0000000000000000E+00    0.0000000000000000E+00
             0.0000000000000000E+00    2.9549999999999992E+00    0.0000000000000000E+00
             0.0000000000000000E+00    5.9109999999999943E+00    0.0000000000000000E+00
             2.9559999999999977E+00    0.0000000000000000E+00    0.0000000000000000E+00
             2.9559999999999977E+00    2.9549999999999992E+00    0.0000000000000000E+00
             2.9559999999999977E+00    5.9109999999999943E+00    0.0000000000000000E+00
             5.9119999999999955E+00    0.0000000000000000E+00    0.0000000000000000E+00
             5.9119999999999955E+00    2.9549999999999992E+00    0.0000000000000000E+00
             5.9119999999999955E+00    5.9109999999999943E+00    0.0000000000000000E+00
             8.6699999999999893E+00    0.0000000000000000E+00    0.0000000000000000E+00
             8.6699999999999893E+00    2.9549999999999992E+00    0.0000000000000000E+00
             8.6699999999999893E+00    5.9109999999999943E+00    0.0000000000000000E+00
             1.1625999999999991E+01    0.0000000000000000E+00    0.0000000000000000E+00
             1.1625999999999991E+01    2.9549999999999992E+00    0.0000000000000000E+00
             1.1625999999999991E+01    5.9109999999999943E+00    0.0000000000000000E+00
             1.4779999999999989E+00    1.4779999999999989E+00    2.0899999999999994E+00
             1.4779999999999989E+00    4.4329999999999945E+00    2.0899999999999994E+00
             1.4779999999999989E+00    7.3889999999999931E+00    2.0899999999999994E+00
             4.4339999999999984E+00    1.4779999999999989E+00    2.0899999999999994E+00
             4.4339999999999984E+00    4.4329999999999945E+00    2.0899999999999994E+00
             4.4339999999999984E+00    7.3889999999999931E+00    2.0899999999999994E+00
             7.1919999999999966E+00    1.4779999999999989E+00    2.0899999999999994E+00
             7.1919999999999966E+00    4.4329999999999945E+00    2.0899999999999994E+00
             7.1919999999999966E+00    7.3889999999999931E+00    2.0899999999999994E+00
             1.0148000000000001E+01    1.4779999999999989E+00    2.0899999999999994E+00
             1.0148000000000001E+01    4.4329999999999945E+00    2.0899999999999994E+00
             1.0148000000000001E+01    7.3889999999999931E+00    2.0899999999999994E+00
             1.3103999999999994E+01    1.4779999999999989E+00    2.0899999999999994E+00
             1.3103999999999994E+01    4.4329999999999945E+00    2.0899999999999994E+00
             1.3103999999999994E+01    7.3889999999999931E+00    2.0899999999999994E+00
             0.0000000000000000E+00    0.0000000000000000E+00    4.1799999999999988E+00
             0.0000000000000000E+00    2.9549999999999992E+00    4.1799999999999988E+00
             0.0000000000000000E+00    5.9109999999999943E+00    4.1799999999999988E+00
             2.9559999999999977E+00    0.0000000000000000E+00    4.1799999999999988E+00
             2.9559999999999977E+00    2.9549999999999992E+00    4.1799999999999988E+00
             2.9559999999999977E+00    5.9109999999999943E+00    4.1799999999999988E+00
             5.9119999999999955E+00    0.0000000000000000E+00    4.1799999999999988E+00
             5.9119999999999955E+00    2.9549999999999992E+00    4.1799999999999988E+00
             5.9119999999999955E+00    5.9109999999999943E+00    4.1799999999999988E+00
             8.6699999999999893E+00    0.0000000000000000E+00    4.1799999999999988E+00
             8.6699999999999893E+00    2.9549999999999992E+00    4.1799999999999988E+00
             8.6699999999999893E+00    5.9109999999999943E+00    4.1799999999999988E+00
             1.1625999999999991E+01    0.0000000000000000E+00    4.1799999999999988E+00
             1.1625999999999991E+01    2.9549999999999992E+00    4.1799999999999988E+00
             1.1625999999999991E+01    5.9109999999999943E+00    4.1799999999999988E+00
             1.4779999999999989E+00    1.4779999999999989E+00    6.2699999999999916E+00
             1.4779999999999989E+00    4.4329999999999945E+00    6.2699999999999916E+00
             1.4779999999999989E+00    7.3889999999999931E+00    6.2699999999999916E+00
             4.4339999999999984E+00    1.4779999999999989E+00    6.2699999999999916E+00
             4.4339999999999984E+00    4.4329999999999945E+00    6.2699999999999916E+00
             4.4339999999999984E+00    7.3889999999999931E+00    6.2699999999999916E+00
             7.1919999999999966E+00    1.4779999999999989E+00    6.2699999999999916E+00
             7.1919999999999966E+00    4.4329999999999945E+00    6.2699999999999916E+00
             7.1919999999999966E+00    7.3889999999999931E+00    6.2699999999999916E+00
             1.0148000000000001E+01    1.4779999999999989E+00    6.2699999999999916E+00
             1.0148000000000001E+01    4.4329999999999945E+00    6.2699999999999916E+00
             1.0148000000000001E+01    7.3889999999999931E+00    6.2699999999999916E+00
             1.3103999999999994E+01    1.4779999999999989E+00    6.2699999999999916E+00
             1.3103999999999994E+01    4.4329999999999945E+00    6.2699999999999916E+00
             1.3103999999999994E+01    7.3889999999999931E+00    6.2699999999999916E+00
             0.0000000000000000E+00    0.0000000000000000E+00    8.3599999999999977E+00
             0.0000000000000000E+00    2.9549999999999992E+00    8.3599999999999977E+00
             0.0000000000000000E+00    5.9109999999999943E+00    8.3599999999999977E+00
             2.9559999999999977E+00    0.0000000000000000E+00    8.3599999999999977E+00
             2.9559999999999977E+00    2.9549999999999992E+00    8.3599999999999977E+00
             2.9559999999999977E+00    5.9109999999999943E+00    8.3599999999999977E+00
             5.9119999999999955E+00    0.0000000000000000E+00    8.3599999999999977E+00
             5.9119999999999955E+00    2.9549999999999992E+00    8.3599999999999977E+00
             5.9119999999999955E+00    5.9109999999999943E+00    8.3599999999999977E+00
             8.6699999999999893E+00    0.0000000000000000E+00    8.3599999999999977E+00
             8.6699999999999893E+00    2.9549999999999992E+00    8.3599999999999977E+00
             8.6699999999999893E+00    5.9109999999999943E+00    8.3599999999999977E+00
             1.1625999999999991E+01    0.0000000000000000E+00    8.3599999999999977E+00
             1.1625999999999991E+01    2.9549999999999992E+00    8.3599999999999977E+00
             1.1625999999999991E+01    5.9109999999999943E+00    8.3599999999999977E+00
             1.4779999999999989E+00    1.4779999999999989E+00    1.0449999999999998E+01
             1.4779999999999989E+00    4.4329999999999945E+00    1.0449999999999998E+01
             1.4779999999999989E+00    7.3889999999999931E+00    1.0449999999999998E+01
             4.4339999999999984E+00    1.4779999999999989E+00    1.0449999999999998E+01
             4.4339999999999984E+00    4.4329999999999945E+00    1.0449999999999998E+01
             4.4339999999999984E+00    7.3889999999999931E+00    1.0449999999999998E+01
             7.1919999999999966E+00    1.4779999999999989E+00    1.0449999999999998E+01
             7.1919999999999966E+00    4.4329999999999945E+00    1.0449999999999998E+01
             7.1919999999999966E+00    7.3889999999999931E+00    1.0449999999999998E+01
             1.0148000000000001E+01    1.4779999999999989E+00    1.0449999999999998E+01
             1.0148000000000001E+01    4.4329999999999945E+00    1.0449999999999998E+01
             1.0148000000000001E+01    7.3889999999999931E+00    1.0449999999999998E+01
             1.3103999999999994E+01    1.4779999999999989E+00    1.0449999999999998E+01
             1.3103999999999994E+01    4.4329999999999945E+00    1.0449999999999998E+01
             1.3103999999999994E+01    7.3889999999999931E+00    1.0449999999999998E+01
             4.8553999999999968E+00    5.9118999999999993E+00    1.2031799999999999E+01
             9.5279999999999898E+00    5.9136999999999951E+00    1.2033999999999999E+01
             7.1919999999999966E+00    5.9339999999999966E+00    1.2039999999999994E+01
             4.0673339927999956E+00    5.9059993219999987E+00    1.2687741368899994E+01
             1.0318905404799988E+01    5.9087793825999979E+00    1.2685747073199998E+01
             5.9989554221999990E+00    5.9152564165999992E+00    1.2792642411199999E+01
             8.3738707292999930E+00    5.9179777706999968E+00    1.2731457252199993E+01
             8.3227525761999939E+00    5.9051536094999957E+00    1.4080497642099992E+01
             5.9344285048999943E+00    5.8981604864999992E+00    1.4101749969599995E+01
             7.1039653576999973E+00    5.8899410688999971E+00    1.4828703219099992E+01
             7.2416021046999939E+00    5.8657702091999928E+00    1.6106466757299987E+01
             6.3118250322999945E+00    5.8547577070999957E+00    1.6539601306199998E+01
             9.1743570612999914E+00    5.8876302391999928E+00    1.4641017735299991E+01
             7.3119999999999949E+00    5.9339999999999966E+00    2.1042999999999992E+01
             5.8129999999999953E+00    7.4339999999999939E+00    2.2991999999999980E+01
             8.8129999999999935E+00    4.4339999999999984E+00    2.2991999999999980E+01
             5.8129999999999953E+00    4.4329999999999945E+00    2.2991999999999980E+01
             8.8129999999999935E+00    7.4339999999999939E+00    2.2991999999999980E+01
             1.4779999999999989E+00    1.4779999999999989E+00    2.5081999999999990E+01
             1.4779999999999989E+00    4.4329999999999945E+00    2.5081999999999990E+01
             1.4779999999999989E+00    7.3889999999999931E+00    2.5081999999999990E+01
             4.4339999999999984E+00    1.4779999999999989E+00    2.5081999999999990E+01
             4.4339999999999984E+00    4.4329999999999945E+00    2.5081999999999990E+01
             4.4339999999999984E+00    7.3889999999999931E+00    2.5081999999999990E+01
             7.1919999999999966E+00    1.4779999999999989E+00    2.5081999999999990E+01
             7.1919999999999966E+00    4.4329999999999945E+00    2.5081999999999990E+01
             7.1919999999999966E+00    7.3889999999999931E+00    2.5081999999999990E+01
             1.0148000000000001E+01    1.4779999999999989E+00    2.5081999999999990E+01
             1.0148000000000001E+01    4.4329999999999945E+00    2.5081999999999990E+01
             1.0148000000000001E+01    7.3889999999999931E+00    2.5081999999999990E+01
             1.3103999999999994E+01    1.4779999999999989E+00    2.5081999999999990E+01
             1.3103999999999994E+01    4.4329999999999945E+00    2.5081999999999990E+01
             1.3103999999999994E+01    7.3889999999999931E+00    2.5081999999999990E+01
             0.0000000000000000E+00    0.0000000000000000E+00    2.7171999999999997E+01
             0.0000000000000000E+00    2.9549999999999992E+00    2.7171999999999997E+01
             0.0000000000000000E+00    5.9109999999999943E+00    2.7171999999999997E+01
             2.9559999999999977E+00    0.0000000000000000E+00    2.7171999999999997E+01
             2.9559999999999977E+00    2.9549999999999992E+00    2.7171999999999997E+01
             2.9559999999999977E+00    5.9109999999999943E+00    2.7171999999999997E+01
             5.9119999999999955E+00    0.0000000000000000E+00    2.7171999999999997E+01
             5.9119999999999955E+00    2.9549999999999992E+00    2.7171999999999997E+01
             5.9119999999999955E+00    5.9109999999999943E+00    2.7171999999999997E+01
             8.6699999999999893E+00    0.0000000000000000E+00    2.7171999999999997E+01
             8.6699999999999893E+00    2.9549999999999992E+00    2.7171999999999997E+01
             8.6699999999999893E+00    5.9109999999999943E+00    2.7171999999999997E+01
             1.1625999999999991E+01    0.0000000000000000E+00    2.7171999999999997E+01
             1.1625999999999991E+01    2.9549999999999992E+00    2.7171999999999997E+01
             1.1625999999999991E+01    5.9109999999999943E+00    2.7171999999999997E+01
             1.4779999999999989E+00    1.4779999999999989E+00    2.9262000000000000E+01
             1.4779999999999989E+00    4.4329999999999945E+00    2.9262000000000000E+01
             1.4779999999999989E+00    7.3889999999999931E+00    2.9262000000000000E+01
             4.4339999999999984E+00    1.4779999999999989E+00    2.9262000000000000E+01
             4.4339999999999984E+00    4.4329999999999945E+00    2.9262000000000000E+01
             4.4339999999999984E+00    7.3889999999999931E+00    2.9262000000000000E+01
             7.1919999999999966E+00    1.4779999999999989E+00    2.9262000000000000E+01
             7.1919999999999966E+00    4.4329999999999945E+00    2.9262000000000000E+01
             7.1919999999999966E+00    7.3889999999999931E+00    2.9262000000000000E+01
             1.0148000000000001E+01    1.4779999999999989E+00    2.9262000000000000E+01
             1.0148000000000001E+01    4.4329999999999945E+00    2.9262000000000000E+01
             1.0148000000000001E+01    7.3889999999999931E+00    2.9262000000000000E+01
             1.3103999999999994E+01    1.4779999999999989E+00    2.9262000000000000E+01
             1.3103999999999994E+01    4.4329999999999945E+00    2.9262000000000000E+01
             1.3103999999999994E+01    7.3889999999999931E+00    2.9262000000000000E+01
             0.0000000000000000E+00    0.0000000000000000E+00    3.1351999999999997E+01
             0.0000000000000000E+00    2.9549999999999992E+00    3.1351999999999997E+01
             0.0000000000000000E+00    5.9109999999999943E+00    3.1351999999999997E+01
             2.9559999999999977E+00    0.0000000000000000E+00    3.1351999999999997E+01
             2.9559999999999977E+00    2.9549999999999992E+00    3.1351999999999997E+01
             2.9559999999999977E+00    5.9109999999999943E+00    3.1351999999999997E+01
             5.9119999999999955E+00    0.0000000000000000E+00    3.1351999999999997E+01
             5.9119999999999955E+00    2.9549999999999992E+00    3.1351999999999997E+01
             5.9119999999999955E+00    5.9109999999999943E+00    3.1351999999999997E+01
             8.6699999999999893E+00    0.0000000000000000E+00    3.1351999999999997E+01
             8.6699999999999893E+00    2.9549999999999992E+00    3.1351999999999997E+01
             8.6699999999999893E+00    5.9109999999999943E+00    3.1351999999999997E+01
             1.1625999999999991E+01    0.0000000000000000E+00    3.1351999999999997E+01
             1.1625999999999991E+01    2.9549999999999992E+00    3.1351999999999997E+01
             1.1625999999999991E+01    5.9109999999999943E+00    3.1351999999999997E+01
             1.4779999999999989E+00    1.4779999999999989E+00    3.3441999999999965E+01
             1.4779999999999989E+00    4.4329999999999945E+00    3.3441999999999965E+01
             1.4779999999999989E+00    7.3889999999999931E+00    3.3441999999999965E+01
             4.4339999999999984E+00    1.4779999999999989E+00    3.3441999999999965E+01
             4.4339999999999984E+00    4.4329999999999945E+00    3.3441999999999965E+01
             4.4339999999999984E+00    7.3889999999999931E+00    3.3441999999999965E+01
             7.1919999999999966E+00    1.4779999999999989E+00    3.3441999999999965E+01
             7.1919999999999966E+00    4.4329999999999945E+00    3.3441999999999965E+01
             7.1919999999999966E+00    7.3889999999999931E+00    3.3441999999999965E+01
             1.0148000000000001E+01    1.4779999999999989E+00    3.3441999999999965E+01
             1.0148000000000001E+01    4.4329999999999945E+00    3.3441999999999965E+01
             1.0148000000000001E+01    7.3889999999999931E+00    3.3441999999999965E+01
             1.3103999999999994E+01    1.4779999999999989E+00    3.3441999999999965E+01
             1.3103999999999994E+01    4.4329999999999945E+00    3.3441999999999965E+01
             1.3103999999999994E+01    7.3889999999999931E+00    3.3441999999999965E+01
       &END COORD
       &VELOCITY
             0.0000000000000000E+00    0.0000000000000000E+00    0.0000000000000000E+00
             0.0000000000000000E+00    0.0000000000000000E+00    0.0000000000000000E+00
             0.0000000000000000E+00    0.0000000000000000E+00    0.0000000000000000E+00
             0.0000000000000000E+00    0.0000000000000000E+00    0.0000000000000000E+00
             0.0000000000000000E+00    0.0000000000000000E+00    0.0000000000000000E+00
             0.0000000000000000E+00    0.0000000000000000E+00    0.0000000000000000E+00
             0.0000000000000000E+00    0.0000000000000000E+00    0.0000000000000000E+00
             0.0000000000000000E+00    0.0000000000000000E+00    0.0000000000000000E+00
             0.0000000000000000E+00    0.0000000000000000E+00    0.0000000000000000E+00
             0.0000000000000000E+00    0.0000000000000000E+00    0.0000000000000000E+00
             0.0000000000000000E+00    0.0000000000000000E+00    0.0000000000000000E+00
             0.0000000000000000E+00    0.0000000000000000E+00    0.0000000000000000E+00
             0.0000000000000000E+00    0.0000000000000000E+00    0.0000000000000000E+00
             0.0000000000000000E+00    0.0000000000000000E+00    0.0000000000000000E+00
             0.0000000000000000E+00    0.0000000000000000E+00    0.0000000000000000E+00
             0.0000000000000000E+00    0.0000000000000000E+00    0.0000000000000000E+00
             0.0000000000000000E+00    0.0000000000000000E+00    0.0000000000000000E+00
             0.0000000000000000E+00    0.0000000000000000E+00    0.0000000000000000E+00
             0.0000000000000000E+00    0.0000000000000000E+00    0.0000000000000000E+00
             0.0000000000000000E+00    0.0000000000000000E+00    0.0000000000000000E+00
             0.0000000000000000E+00    0.0000000000000000E+00    0.0000000000000000E+00
             0.0000000000000000E+00    0.0000000000000000E+00    0.0000000000000000E+00
             0.0000000000000000E+00    0.0000000000000000E+00    0.0000000000000000E+00
             0.0000000000000000E+00    0.0000000000000000E+00    0.0000000000000000E+00
             0.0000000000000000E+00    0.0000000000000000E+00    0.0000000000000000E+00
             0.0000000000000000E+00    0.0000000000000000E+00    0.0000000000000000E+00
             0.0000000000000000E+00    0.0000000000000000E+00    0.0000000000000000E+00
             0.0000000000000000E+00    0.0000000000000000E+00    0.0000000000000000E+00
             0.0000000000000000E+00    0.0000000000000000E+00    0.0000000000000000E+00
             0.0000000000000000E+00    0.0000000000000000E+00    0.0000000000000000E+00
             0.0000000000000000E+00    0.0000000000000000E+00    0.0000000000000000E+00
             0.0000000000000000E+00    0.0000000000000000E+00    0.0000000000000000E+00
             0.0000000000000000E+00    0.0000000000000000E+00    0.0000000000000000E+00
             0.0000000000000000E+00    0.0000000000000000E+00    0.0000000000000000E+00
             0.0000000000000000E+00    0.0000000000000000E+00    0.0000000000000000E+00
             0.0000000000000000E+00    0.0000000000000000E+00    0.0000000000000000E+00
             0.0000000000000000E+00    0.0000000000000000E+00    0.0000000000000000E+00
             0.0000000000000000E+00    0.0000000000000000E+00    0.0000000000000000E+00
             0.0000000000000000E+00    0.0000000000000000E+00    0.0000000000000000E+00
             0.0000000000000000E+00    0.0000000000000000E+00    0.0000000000000000E+00
             0.0000000000000000E+00    0.0000000000000000E+00    0.0000000000000000E+00
             0.0000000000000000E+00    0.0000000000000000E+00    0.0000000000000000E+00
             0.0000000000000000E+00    0.0000000000000000E+00    0.0000000000000000E+00
             0.0000000000000000E+00    0.0000000000000000E+00    0.0000000000000000E+00
             0.0000000000000000E+00    0.0000000000000000E+00    0.0000000000000000E+00
             0.0000000000000000E+00    0.0000000000000000E+00    0.0000000000000000E+00
             0.0000000000000000E+00    0.0000000000000000E+00    0.0000000000000000E+00
             0.0000000000000000E+00    0.0000000000000000E+00    0.0000000000000000E+00
             0.0000000000000000E+00    0.0000000000000000E+00    0.0000000000000000E+00
             0.0000000000000000E+00    0.0000000000000000E+00    0.0000000000000000E+00
             0.0000000000000000E+00    0.0000000000000000E+00    0.0000000000000000E+00
             0.0000000000000000E+00    0.0000000000000000E+00    0.0000000000000000E+00
             0.0000000000000000E+00    0.0000000000000000E+00    0.0000000000000000E+00
             0.0000000000000000E+00    0.0000000000000000E+00    0.0000000000000000E+00
             0.0000000000000000E+00    0.0000000000000000E+00    0.0000000000000000E+00
             0.0000000000000000E+00    0.0000000000000000E+00    0.0000000000000000E+00
             0.0000000000000000E+00    0.0000000000000000E+00    0.0000000000000000E+00
             0.0000000000000000E+00    0.0000000000000000E+00    0.0000000000000000E+00
             0.0000000000000000E+00    0.0000000000000000E+00    0.0000000000000000E+00
             0.0000000000000000E+00    0.0000000000000000E+00    0.0000000000000000E+00
             0.0000000000000000E+00    0.0000000000000000E+00    0.0000000000000000E+00
             0.0000000000000000E+00    0.0000000000000000E+00    0.0000000000000000E+00
             0.0000000000000000E+00    0.0000000000000000E+00    0.0000000000000000E+00
             0.0000000000000000E+00    0.0000000000000000E+00    0.0000000000000000E+00
             0.0000000000000000E+00    0.0000000000000000E+00    0.0000000000000000E+00
             0.0000000000000000E+00    0.0000000000000000E+00    0.0000000000000000E+00
             0.0000000000000000E+00    0.0000000000000000E+00    0.0000000000000000E+00
             0.0000000000000000E+00    0.0000000000000000E+00    0.0000000000000000E+00
             0.0000000000000000E+00    0.0000000000000000E+00    0.0000000000000000E+00
             0.0000000000000000E+00    0.0000000000000000E+00    0.0000000000000000E+00
             0.0000000000000000E+00    0.0000000000000000E+00    0.0000000000000000E+00
             0.0000000000000000E+00    0.0000000000000000E+00    0.0000000000000000E+00
             0.0000000000000000E+00    0.0000000000000000E+00    0.0000000000000000E+00
             0.0000000000000000E+00    0.0000000000000000E+00    0.0000000000000000E+00
             0.0000000000000000E+00    0.0000000000000000E+00    0.0000000000000000E+00
             0.0000000000000000E+00    0.0000000000000000E+00    0.0000000000000000E+00
             0.0000000000000000E+00    0.0000000000000000E+00    0.0000000000000000E+00
             0.0000000000000000E+00    0.0000000000000000E+00    0.0000000000000000E+00
             0.0000000000000000E+00    0.0000000000000000E+00    0.0000000000000000E+00
             0.0000000000000000E+00    0.0000000000000000E+00    0.0000000000000000E+00
             0.0000000000000000E+00    0.0000000000000000E+00    0.0000000000000000E+00
             0.0000000000000000E+00    0.0000000000000000E+00    0.0000000000000000E+00
             0.0000000000000000E+00    0.0000000000000000E+00    0.0000000000000000E+00
             0.0000000000000000E+00    0.0000000000000000E+00    0.0000000000000000E+00
             0.0000000000000000E+00    0.0000000000000000E+00    0.0000000000000000E+00
             0.0000000000000000E+00    0.0000000000000000E+00    0.0000000000000000E+00
             0.0000000000000000E+00    0.0000000000000000E+00    0.0000000000000000E+00
             0.0000000000000000E+00    0.0000000000000000E+00    0.0000000000000000E+00
             0.0000000000000000E+00    0.0000000000000000E+00    0.0000000000000000E+00
             0.0000000000000000E+00    0.0000000000000000E+00    0.0000000000000000E+00
             0.0000000000000000E+00    0.0000000000000000E+00    0.0000000000000000E+00
             0.0000000000000000E+00    0.0000000000000000E+00    0.0000000000000000E+00
             0.0000000000000000E+00    0.0000000000000000E+00    0.0000000000000000E+00
             0.0000000000000000E+00    0.0000000000000000E+00    0.0000000000000000E+00
             0.0000000000000000E+00    0.0000000000000000E+00    0.0000000000000000E+00
             0.0000000000000000E+00    0.0000000000000000E+00    0.0000000000000000E+00
             0.0000000000000000E+00    0.0000000000000000E+00    0.0000000000000000E+00
             0.0000000000000000E+00    0.0000000000000000E+00    0.0000000000000000E+00
             0.0000000000000000E+00    0.0000000000000000E+00    0.0000000000000000E+00
             0.0000000000000000E+00    0.0000000000000000E+00    0.0000000000000000E+00
             0.0000000000000000E+00    0.0000000000000000E+00    0.0000000000000000E+00
             0.0000000000000000E+00    0.0000000000000000E+00    0.0000000000000000E+00
             0.0000000000000000E+00    0.0000000000000000E+00    0.0000000000000000E+00
             0.0000000000000000E+00    0.0000000000000000E+00    0.0000000000000000E+00
             0.0000000000000000E+00    0.0000000000000000E+00    0.0000000000000000E+00
             0.0000000000000000E+00    0.0000000000000000E+00    0.0000000000000000E+00
             0.0000000000000000E+00    0.0000000000000000E+00    0.0000000000000000E+00
             0.0000000000000000E+00    0.0000000000000000E+00    0.0000000000000000E+00
             0.0000000000000000E+00    0.0000000000000000E+00    0.0000000000000000E+00
             0.0000000000000000E+00    0.0000000000000000E+00    0.0000000000000000E+00
             0.0000000000000000E+00    0.0000000000000000E+00    0.0000000000000000E+00
             0.0000000000000000E+00    0.0000000000000000E+00    0.0000000000000000E+00
             0.0000000000000000E+00    0.0000000000000000E+00    0.0000000000000000E+00
             0.0000000000000000E+00    0.0000000000000000E+00    0.0000000000000000E+00
             0.0000000000000000E+00    0.0000000000000000E+00    0.0000000000000000E+00
             0.0000000000000000E+00    0.0000000000000000E+00    0.0000000000000000E+00
             0.0000000000000000E+00    0.0000000000000000E+00    0.0000000000000000E+00
             0.0000000000000000E+00    0.0000000000000000E+00    0.0000000000000000E+00
             0.0000000000000000E+00    0.0000000000000000E+00    0.0000000000000000E+00
             0.0000000000000000E+00    0.0000000000000000E+00    0.0000000000000000E+00
             0.0000000000000000E+00    0.0000000000000000E+00    0.0000000000000000E+00
             0.0000000000000000E+00    0.0000000000000000E+00    0.0000000000000000E+00
             0.0000000000000000E+00    0.0000000000000000E+00    0.0000000000000000E+00
             0.0000000000000000E+00    0.0000000000000000E+00    0.0000000000000000E+00
             0.0000000000000000E+00    0.0000000000000000E+00    0.0000000000000000E+00
             0.0000000000000000E+00    0.0000000000000000E+00    0.0000000000000000E+00
             0.0000000000000000E+00    0.0000000000000000E+00    0.0000000000000000E+00
             0.0000000000000000E+00    0.0000000000000000E+00    0.0000000000000000E+00
             0.0000000000000000E+00    0.0000000000000000E+00    0.0000000000000000E+00
             0.0000000000000000E+00    0.0000000000000000E+00    0.0000000000000000E+00
             0.0000000000000000E+00    0.0000000000000000E+00    0.0000000000000000E+00
             0.0000000000000000E+00    0.0000000000000000E+00    0.0000000000000000E+00
             0.0000000000000000E+00    0.0000000000000000E+00    0.0000000000000000E+00
             0.0000000000000000E+00    0.0000000000000000E+00    0.0000000000000000E+00
             0.0000000000000000E+00    0.0000000000000000E+00    0.0000000000000000E+00
             0.0000000000000000E+00    0.0000000000000000E+00    0.0000000000000000E+00
             0.0000000000000000E+00    0.0000000000000000E+00    0.0000000000000000E+00
             0.0000000000000000E+00    0.0000000000000000E+00    0.0000000000000000E+00
             0.0000000000000000E+00    0.0000000000000000E+00    0.0000000000000000E+00
             0.0000000000000000E+00    0.0000000000000000E+00    0.0000000000000000E+00
             0.0000000000000000E+00    0.0000000000000000E+00    0.0000000000000000E+00
             0.0000000000000000E+00    0.0000000000000000E+00    0.0000000000000000E+00
             0.0000000000000000E+00    0.0000000000000000E+00    0.0000000000000000E+00
             0.0000000000000000E+00    0.0000000000000000E+00    0.0000000000000000E+00
             0.0000000000000000E+00    0.0000000000000000E+00    0.0000000000000000E+00