 # Version information for this restart file 
 # current date 2024-01-12 12:31:46.932
 # current working dir /gpfs/home/cahart/transport/melamine/au_from-h2/ci-neb/ts2/dft_leads-sz_tip-dzvp_surf-dzvp_kpoints-2-4-20_replicas-7
 # Program compiled at                              Thu 21 Sep 19:20:17 BST 2023
 # Program compiled on                                           hx1-c12-login-1
 # Program compiled for                                                    local
 # Source code revision number                                       git:5518aa6
 &GLOBAL
   EXTENDED_FFT_LENGTHS  T
   PRINT_LEVEL  MEDIUM
   PROJECT_NAME 2_dft_wfn-r-0
   OUTPUT_FILE_NAME 2_dft_wfn-r-0.out
   RUN_TYPE  BAND
 &END GLOBAL
 &MOTION
   &BAND
     NPROC_REP  64
     BAND_TYPE  CI-NEB
     NUMBER_OF_REPLICA  7
     K_SPRING     5.0000000000000003E-02
     &CI_NEB
       NSTEPS_IT  5
     &END CI_NEB
     &OPTIMIZE_BAND
       OPT_TYPE  DIIS
       &DIIS
         MAX_STEPS  1000
       &END DIIS
     &END OPTIMIZE_BAND
     &REPLICA
       &COORD
             0.0000000000000000E+00    0.0000000000000000E+00    0.0000000000000000E+00
             0.0000000000000000E+00    2.9550000000000027E+00    0.0000000000000000E+00
             0.0000000000000000E+00    5.9109999999999996E+00    0.0000000000000000E+00
             2.9560000000000013E+00    0.0000000000000000E+00    0.0000000000000000E+00
             2.9560000000000013E+00    2.9550000000000027E+00    0.0000000000000000E+00
             2.9560000000000013E+00    5.9109999999999996E+00    0.0000000000000000E+00
             5.9120000000000026E+00    0.0000000000000000E+00    0.0000000000000000E+00
             5.9120000000000026E+00    2.9550000000000027E+00    0.0000000000000000E+00
             5.9120000000000026E+00    5.9109999999999996E+00    0.0000000000000000E+00
             8.6699999999999982E+00    0.0000000000000000E+00    0.0000000000000000E+00
             8.6699999999999982E+00    2.9550000000000027E+00    0.0000000000000000E+00
             8.6699999999999982E+00    5.9109999999999996E+00    0.0000000000000000E+00
             1.1626000000000003E+01    0.0000000000000000E+00    0.0000000000000000E+00
             1.1626000000000003E+01    2.9550000000000027E+00    0.0000000000000000E+00
             1.1626000000000003E+01    5.9109999999999996E+00    0.0000000000000000E+00
             1.4780000000000006E+00    1.4780000000000006E+00    2.0900000000000012E+00
             1.4780000000000006E+00    4.4330000000000007E+00    2.0900000000000012E+00
             1.4780000000000006E+00    7.3890000000000029E+00    2.0900000000000012E+00
             4.4340000000000046E+00    1.4780000000000006E+00    2.0900000000000012E+00
             4.4340000000000046E+00    4.4330000000000007E+00    2.0900000000000012E+00
             4.4340000000000046E+00    7.3890000000000029E+00    2.0900000000000012E+00
             7.1920000000000055E+00    1.4780000000000006E+00    2.0900000000000012E+00
             7.1920000000000055E+00    4.4330000000000007E+00    2.0900000000000012E+00
             7.1920000000000055E+00    7.3890000000000029E+00    2.0900000000000012E+00
             1.0148000000000010E+01    1.4780000000000006E+00    2.0900000000000012E+00
             1.0148000000000010E+01    4.4330000000000007E+00    2.0900000000000012E+00
             1.0148000000000010E+01    7.3890000000000029E+00    2.0900000000000012E+00
             1.3104000000000010E+01    1.4780000000000006E+00    2.0900000000000012E+00
             1.3104000000000010E+01    4.4330000000000007E+00    2.0900000000000012E+00
             1.3104000000000010E+01    7.3890000000000029E+00    2.0900000000000012E+00
             0.0000000000000000E+00    0.0000000000000000E+00    4.1800000000000024E+00
             0.0000000000000000E+00    2.9550000000000027E+00    4.1800000000000024E+00
             0.0000000000000000E+00    5.9109999999999996E+00    4.1800000000000024E+00
             2.9560000000000013E+00    0.0000000000000000E+00    4.1800000000000024E+00
             2.9560000000000013E+00    2.9550000000000027E+00    4.1800000000000024E+00
             2.9560000000000013E+00    5.9109999999999996E+00    4.1800000000000024E+00
             5.9120000000000026E+00    0.0000000000000000E+00    4.1800000000000024E+00
             5.9120000000000026E+00    2.9550000000000027E+00    4.1800000000000024E+00
             5.9120000000000026E+00    5.9109999999999996E+00    4.1800000000000024E+00
             8.6699999999999982E+00    0.0000000000000000E+00    4.1800000000000024E+00
             8.6699999999999982E+00    2.9550000000000027E+00    4.1800000000000024E+00
             8.6699999999999982E+00    5.9109999999999996E+00    4.1800000000000024E+00
             1.1626000000000003E+01    0.0000000000000000E+00    4.1800000000000024E+00
             1.1626000000000003E+01    2.9550000000000027E+00    4.1800000000000024E+00
             1.1626000000000003E+01    5.9109999999999996E+00    4.1800000000000024E+00
             1.4780000000000006E+00    1.4780000000000006E+00    6.2699999999999996E+00
             1.4780000000000006E+00    4.4330000000000007E+00    6.2699999999999996E+00
             1.4780000000000006E+00    7.3890000000000029E+00    6.2699999999999996E+00
             4.4340000000000046E+00    1.4780000000000006E+00    6.2699999999999996E+00
             4.4340000000000046E+00    4.4330000000000007E+00    6.2699999999999996E+00
             4.4340000000000046E+00    7.3890000000000029E+00    6.2699999999999996E+00
             7.1920000000000055E+00    1.4780000000000006E+00    6.2699999999999996E+00
             7.1920000000000055E+00    4.4330000000000007E+00    6.2699999999999996E+00
             7.1920000000000055E+00    7.3890000000000029E+00    6.2699999999999996E+00
             1.0148000000000010E+01    1.4780000000000006E+00    6.2699999999999996E+00
             1.0148000000000010E+01    4.4330000000000007E+00    6.2699999999999996E+00
             1.0148000000000010E+01    7.3890000000000029E+00    6.2699999999999996E+00
             1.3104000000000010E+01    1.4780000000000006E+00    6.2699999999999996E+00
             1.3104000000000010E+01    4.4330000000000007E+00    6.2699999999999996E+00
             1.3104000000000010E+01    7.3890000000000029E+00    6.2699999999999996E+00
             0.0000000000000000E+00    0.0000000000000000E+00    8.3600000000000048E+00
             0.0000000000000000E+00    2.9550000000000027E+00    8.3600000000000048E+00
             0.0000000000000000E+00    5.9109999999999996E+00    8.3600000000000048E+00
             2.9560000000000013E+00    0.0000000000000000E+00    8.3600000000000048E+00
             2.9560000000000013E+00    2.9550000000000027E+00    8.3600000000000048E+00
             2.9560000000000013E+00    5.9109999999999996E+00    8.3600000000000048E+00
             5.9120000000000026E+00    0.0000000000000000E+00    8.3600000000000048E+00
             5.9120000000000026E+00    2.9550000000000027E+00    8.3600000000000048E+00
             5.9120000000000026E+00    5.9109999999999996E+00    8.3600000000000048E+00
             8.6699999999999982E+00    0.0000000000000000E+00    8.3600000000000048E+00
             8.6699999999999982E+00    2.9550000000000027E+00    8.3600000000000048E+00
             8.6699999999999982E+00    5.9109999999999996E+00    8.3600000000000048E+00
             1.1626000000000003E+01    0.0000000000000000E+00    8.3600000000000048E+00
             1.1626000000000003E+01    2.9550000000000027E+00    8.3600000000000048E+00
             1.1626000000000003E+01    5.9109999999999996E+00    8.3600000000000048E+00
             1.4780000000000006E+00    1.4780000000000006E+00    1.0450000000000006E+01
             1.4780000000000006E+00    4.4330000000000007E+00    1.0450000000000006E+01
             1.4780000000000006E+00    7.3890000000000029E+00    1.0450000000000006E+01
             4.4340000000000046E+00    1.4780000000000006E+00    1.0450000000000006E+01
             4.4340000000000046E+00    4.4330000000000007E+00    1.0450000000000006E+01
             4.4340000000000046E+00    7.3890000000000029E+00    1.0450000000000006E+01
             7.1920000000000055E+00    1.4780000000000006E+00    1.0450000000000006E+01
             7.1920000000000055E+00    4.4330000000000007E+00    1.0450000000000006E+01
             7.1920000000000055E+00    7.3890000000000029E+00    1.0450000000000006E+01
             1.0148000000000010E+01    1.4780000000000006E+00    1.0450000000000006E+01
             1.0148000000000010E+01    4.4330000000000007E+00    1.0450000000000006E+01
             1.0148000000000010E+01    7.3890000000000029E+00    1.0450000000000006E+01
             1.3104000000000010E+01    1.4780000000000006E+00    1.0450000000000006E+01
             1.3104000000000010E+01    4.4330000000000007E+00    1.0450000000000006E+01
             1.3104000000000010E+01    7.3890000000000029E+00    1.0450000000000006E+01
             4.8554000000000022E+00    5.9119000000000055E+00    1.2031800000000009E+01
             9.5279999999999987E+00    5.9137000000000013E+00    1.2034000000000010E+01
             7.1920000000000055E+00    5.9340000000000028E+00    1.2040000000000008E+01
             4.0673339928000001E+00    5.9059993220000049E+00    1.2687741368900008E+01
             1.0318905404800001E+01    5.9087793826000032E+00    1.2685747073200011E+01
             5.9989554222000052E+00    5.9152564166000037E+00    1.2792642411200010E+01
             8.3738707293000036E+00    5.9179777707000021E+00    1.2731457252200007E+01
             8.3227525762000027E+00    5.9051536095000010E+00    1.4080497642100010E+01
             5.9344285049000014E+00    5.8981604865000037E+00    1.4101749969600011E+01
             7.1039653577000053E+00    5.8899410689000034E+00    1.4828703219100007E+01
             7.2416021047000019E+00    5.8657702091999990E+00    1.6106466757300005E+01
             6.3118250323000016E+00    5.8547577071000019E+00    1.6539601306200016E+01
             9.1743570613000021E+00    5.8876302391999999E+00    1.4641017735300005E+01
             7.3120000000000029E+00    5.9340000000000028E+00    2.1043000000000013E+01
             5.8130000000000015E+00    7.4340000000000011E+00    2.2992000000000008E+01
             8.8130000000000024E+00    4.4340000000000046E+00    2.2992000000000008E+01
             5.8130000000000015E+00    4.4330000000000007E+00    2.2992000000000008E+01
             8.8130000000000024E+00    7.4340000000000011E+00    2.2992000000000008E+01
             1.4780000000000006E+00    1.4780000000000006E+00    2.5082000000000015E+01
             1.4780000000000006E+00    4.4330000000000007E+00    2.5082000000000015E+01
             1.4780000000000006E+00    7.3890000000000029E+00    2.5082000000000015E+01
             4.4340000000000046E+00    1.4780000000000006E+00    2.5082000000000015E+01
             4.4340000000000046E+00    4.4330000000000007E+00    2.5082000000000015E+01
             4.4340000000000046E+00    7.3890000000000029E+00    2.5082000000000015E+01
             7.1920000000000055E+00    1.4780000000000006E+00    2.5082000000000015E+01
             7.1920000000000055E+00    4.4330000000000007E+00    2.5082000000000015E+01
             7.1920000000000055E+00    7.3890000000000029E+00    2.5082000000000015E+01
             1.0148000000000010E+01    1.4780000000000006E+00    2.5082000000000015E+01
             1.0148000000000010E+01    4.4330000000000007E+00    2.5082000000000015E+01
             1.0148000000000010E+01    7.3890000000000029E+00    2.5082000000000015E+01
             1.3104000000000010E+01    1.4780000000000006E+00    2.5082000000000015E+01
             1.3104000000000010E+01    4.4330000000000007E+00    2.5082000000000015E+01
             1.3104000000000010E+01    7.3890000000000029E+00    2.5082000000000015E+01
             0.0000000000000000E+00    0.0000000000000000E+00    2.7172000000000022E+01
             0.0000000000000000E+00    2.9550000000000027E+00    2.7172000000000022E+01
             0.0000000000000000E+00    5.9109999999999996E+00    2.7172000000000022E+01
             2.9560000000000013E+00    0.0000000000000000E+00    2.7172000000000022E+01
             2.9560000000000013E+00    2.9550000000000027E+00    2.7172000000000022E+01
             2.9560000000000013E+00    5.9109999999999996E+00    2.7172000000000022E+01
             5.9120000000000026E+00    0.0000000000000000E+00    2.7172000000000022E+01
             5.9120000000000026E+00    2.9550000000000027E+00    2.7172000000000022E+01
             5.9120000000000026E+00    5.9109999999999996E+00    2.7172000000000022E+01
             8.6699999999999982E+00    0.0000000000000000E+00    2.7172000000000022E+01
             8.6699999999999982E+00    2.9550000000000027E+00    2.7172000000000022E+01
             8.6699999999999982E+00    5.9109999999999996E+00    2.7172000000000022E+01
             1.1626000000000003E+01    0.0000000000000000E+00    2.7172000000000022E+01
             1.1626000000000003E+01    2.9550000000000027E+00    2.7172000000000022E+01
             1.1626000000000003E+01    5.9109999999999996E+00    2.7172000000000022E+01
             1.4780000000000006E+00    1.4780000000000006E+00    2.9262000000000022E+01
             1.4780000000000006E+00    4.4330000000000007E+00    2.9262000000000022E+01
             1.4780000000000006E+00    7.3890000000000029E+00    2.9262000000000022E+01
             4.4340000000000046E+00    1.4780000000000006E+00    2.9262000000000022E+01
             4.4340000000000046E+00    4.4330000000000007E+00    2.9262000000000022E+01
             4.4340000000000046E+00    7.3890000000000029E+00    2.9262000000000022E+01
             7.1920000000000055E+00    1.4780000000000006E+00    2.9262000000000022E+01
             7.1920000000000055E+00    4.4330000000000007E+00    2.9262000000000022E+01
             7.1920000000000055E+00    7.3890000000000029E+00    2.9262000000000022E+01
             1.0148000000000010E+01    1.4780000000000006E+00    2.9262000000000022E+01
             1.0148000000000010E+01    4.4330000000000007E+00    2.9262000000000022E+01
             1.0148000000000010E+01    7.3890000000000029E+00    2.9262000000000022E+01
             1.3104000000000010E+01    1.4780000000000006E+00    2.9262000000000022E+01
             1.3104000000000010E+01    4.4330000000000007E+00    2.9262000000000022E+01
             1.3104000000000010E+01    7.3890000000000029E+00    2.9262000000000022E+01
             0.0000000000000000E+00    0.0000000000000000E+00    3.1352000000000025E+01
             0.0000000000000000E+00    2.9550000000000027E+00    3.1352000000000025E+01
             0.0000000000000000E+00    5.9109999999999996E+00    3.1352000000000025E+01
             2.9560000000000013E+00    0.0000000000000000E+00    3.1352000000000025E+01
             2.9560000000000013E+00    2.9550000000000027E+00    3.1352000000000025E+01
             2.9560000000000013E+00    5.9109999999999996E+00    3.1352000000000025E+01
             5.9120000000000026E+00    0.0000000000000000E+00    3.1352000000000025E+01
             5.9120000000000026E+00    2.9550000000000027E+00    3.1352000000000025E+01
             5.9120000000000026E+00    5.9109999999999996E+00    3.1352000000000025E+01
             8.6699999999999982E+00    0.0000000000000000E+00    3.1352000000000025E+01
             8.6699999999999982E+00    2.9550000000000027E+00    3.1352000000000025E+01
             8.6699999999999982E+00    5.9109999999999996E+00    3.1352000000000025E+01
             1.1626000000000003E+01    0.0000000000000000E+00    3.1352000000000025E+01
             1.1626000000000003E+01    2.9550000000000027E+00    3.1352000000000025E+01
             1.1626000000000003E+01    5.9109999999999996E+00    3.1352000000000025E+01
             1.4780000000000006E+00    1.4780000000000006E+00    3.3442000000000007E+01
             1.4780000000000006E+00    4.4330000000000007E+00    3.3442000000000007E+01
             1.4780000000000006E+00    7.3890000000000029E+00    3.3442000000000007E+01
             4.4340000000000046E+00    1.4780000000000006E+00    3.3442000000000007E+01
             4.4340000000000046E+00    4.4330000000000007E+00    3.3442000000000007E+01
             4.4340000000000046E+00    7.3890000000000029E+00    3.3442000000000007E+01
             7.1920000000000055E+00    1.4780000000000006E+00    3.3442000000000007E+01
             7.1920000000000055E+00    4.4330000000000007E+00    3.3442000000000007E+01
             7.1920000000000055E+00    7.3890000000000029E+00    3.3442000000000007E+01
             1.0148000000000010E+01    1.4780000000000006E+00    3.3442000000000007E+01
             1.0148000000000010E+01    4.4330000000000007E+00    3.3442000000000007E+01
             1.0148000000000010E+01    7.3890000000000029E+00    3.3442000000000007E+01
             1.3104000000000010E+01    1.4780000000000006E+00    3.3442000000000007E+01
             1.3104000000000010E+01    4.4330000000000007E+00    3.3442000000000007E+01
             1.3104000000000010E+01    7.3890000000000029E+00    3.3442000000000007E+01
       &END COORD
       &VELOCITY
             0.0000000000000000E+00    0.0000000000000000E+00    0.0000000000000000E+00
             0.0000000000000000E+00    0.0000000000000000E+00    0.0000000000000000E+00
             0.0000000000000000E+00    0.0000000000000000E+00    0.0000000000000000E+00
             0.0000000000000000E+00    0.0000000000000000E+00    0.0000000000000000E+00
             0.0000000000000000E+00    0.0000000000000000E+00    0.0000000000000000E+00
             0.0000000000000000E+00    0.0000000000000000E+00    0.0000000000000000E+00
             0.0000000000000000E+00    0.0000000000000000E+00    0.0000000000000000E+00
             0.0000000000000000E+00    0.0000000000000000E+00    0.0000000000000000E+00
             0.0000000000000000E+00    0.0000000000000000E+00    0.0000000000000000E+00
             0.0000000000000000E+00    0.0000000000000000E+00    0.0000000000000000E+00
             0.0000000000000000E+00    0.0000000000000000E+00    0.0000000000000000E+00
             0.0000000000000000E+00    0.0000000000000000E+00    0.0000000000000000E+00
             0.0000000000000000E+00    0.0000000000000000E+00    0.0000000000000000E+00
             0.0000000000000000E+00    0.0000000000000000E+00    0.0000000000000000E+00
             0.0000000000000000E+00    0.0000000000000000E+00    0.0000000000000000E+00
             0.0000000000000000E+00    0.0000000000000000E+00    0.0000000000000000E+00
             0.0000000000000000E+00    0.0000000000000000E+00    0.0000000000000000E+00
             0.0000000000000000E+00    0.0000000000000000E+00    0.0000000000000000E+00
             0.0000000000000000E+00    0.0000000000000000E+00    0.0000000000000000E+00
             0.0000000000000000E+00    0.0000000000000000E+00    0.0000000000000000E+00
             0.0000000000000000E+00    0.0000000000000000E+00    0.0000000000000000E+00
             0.0000000000000000E+00    0.0000000000000000E+00    0.0000000000000000E+00
             0.0000000000000000E+00    0.0000000000000000E+00    0.0000000000000000E+00
             0.0000000000000000E+00    0.0000000000000000E+00    0.0000000000000000E+00
             0.0000000000000000E+00    0.0000000000000000E+00    0.0000000000000000E+00
             0.0000000000000000E+00    0.0000000000000000E+00    0.0000000000000000E+00
             0.0000000000000000E+00    0.0000000000000000E+00    0.0000000000000000E+00
             0.0000000000000000E+00    0.0000000000000000E+00    0.0000000000000000E+00
             0.0000000000000000E+00    0.0000000000000000E+00    0.0000000000000000E+00
             0.0000000000000000E+00    0.0000000000000000E+00    0.0000000000000000E+00
             0.0000000000000000E+00    0.0000000000000000E+00    0.0000000000000000E+00
             0.0000000000000000E+00    0.0000000000000000E+00    0.0000000000000000E+00
             0.0000000000000000E+00    0.0000000000000000E+00    0.0000000000000000E+00
             0.0000000000000000E+00    0.0000000000000000E+00    0.0000000000000000E+00
             0.0000000000000000E+00    0.0000000000000000E+00    0.0000000000000000E+00
             0.0000000000000000E+00    0.0000000000000000E+00    0.0000000000000000E+00
             0.0000000000000000E+00    0.0000000000000000E+00    0.0000000000000000E+00
             0.0000000000000000E+00    0.0000000000000000E+00    0.0000000000000000E+00
             0.0000000000000000E+00    0.0000000000000000E+00    0.0000000000000000E+00
             0.0000000000000000E+00    0.0000000000000000E+00    0.0000000000000000E+00
             0.0000000000000000E+00    0.0000000000000000E+00    0.0000000000000000E+00
             0.0000000000000000E+00    0.0000000000000000E+00    0.0000000000000000E+00
             0.0000000000000000E+00    0.0000000000000000E+00    0.0000000000000000E+00
             0.0000000000000000E+00    0.0000000000000000E+00    0.0000000000000000E+00
             0.0000000000000000E+00    0.0000000000000000E+00    0.0000000000000000E+00
             0.0000000000000000E+00    0.0000000000000000E+00    0.0000000000000000E+00
             0.0000000000000000E+00    0.0000000000000000E+00    0.0000000000000000E+00
             0.0000000000000000E+00    0.0000000000000000E+00    0.0000000000000000E+00
             0.0000000000000000E+00    0.0000000000000000E+00    0.0000000000000000E+00
             0.0000000000000000E+00    0.0000000000000000E+00    0.0000000000000000E+00
             0.0000000000000000E+00    0.0000000000000000E+00    0.0000000000000000E+00
             0.0000000000000000E+00    0.0000000000000000E+00    0.0000000000000000E+00
             0.0000000000000000E+00    0.0000000000000000E+00    0.0000000000000000E+00
             0.0000000000000000E+00    0.0000000000000000E+00    0.0000000000000000E+00
             0.0000000000000000E+00    0.0000000000000000E+00    0.0000000000000000E+00
             0.0000000000000000E+00    0.0000000000000000E+00    0.0000000000000000E+00
             0.0000000000000000E+00    0.0000000000000000E+00    0.0000000000000000E+00
             0.0000000000000000E+00    0.0000000000000000E+00    0.0000000000000000E+00
             0.0000000000000000E+00    0.0000000000000000E+00    0.0000000000000000E+00
             0.0000000000000000E+00    0.0000000000000000E+00    0.0000000000000000E+00
             0.0000000000000000E+00    0.0000000000000000E+00    0.0000000000000000E+00
             0.0000000000000000E+00    0.0000000000000000E+00    0.0000000000000000E+00
             0.0000000000000000E+00    0.0000000000000000E+00    0.0000000000000000E+00
             0.0000000000000000E+00    0.0000000000000000E+00    0.0000000000000000E+00
             0.0000000000000000E+00    0.0000000000000000E+00    0.0000000000000000E+00
             0.0000000000000000E+00    0.0000000000000000E+00    0.0000000000000000E+00
             0.0000000000000000E+00    0.0000000000000000E+00    0.0000000000000000E+00
             0.0000000000000000E+00    0.0000000000000000E+00    0.0000000000000000E+00
             0.0000000000000000E+00    0.0000000000000000E+00    0.0000000000000000E+00
             0.0000000000000000E+00    0.0000000000000000E+00    0.0000000000000000E+00
             0.0000000000000000E+00    0.0000000000000000E+00    0.0000000000000000E+00
             0.0000000000000000E+00    0.0000000000000000E+00    0.0000000000000000E+00
             0.0000000000000000E+00    0.0000000000000000E+00    0.0000000000000000E+00
             0.0000000000000000E+00    0.0000000000000000E+00    0.0000000000000000E+00
             0.0000000000000000E+00    0.0000000000000000E+00    0.0000000000000000E+00
             0.0000000000000000E+00    0.0000000000000000E+00    0.0000000000000000E+00
             0.0000000000000000E+00    0.0000000000000000E+00    0.0000000000000000E+00
             0.0000000000000000E+00    0.0000000000000000E+00    0.0000000000000000E+00
             0.0000000000000000E+00    0.0000000000000000E+00    0.0000000000000000E+00
             0.0000000000000000E+00    0.0000000000000000E+00    0.0000000000000000E+00
             0.0000000000000000E+00    0.0000000000000000E+00    0.0000000000000000E+00
             0.0000000000000000E+00    0.0000000000000000E+00    0.0000000000000000E+00
             0.0000000000000000E+00    0.0000000000000000E+00    0.0000000000000000E+00
             0.0000000000000000E+00    0.0000000000000000E+00    0.0000000000000000E+00
             0.0000000000000000E+00    0.0000000000000000E+00    0.0000000000000000E+00
             0.0000000000000000E+00    0.0000000000000000E+00    0.0000000000000000E+00
             0.0000000000000000E+00    0.0000000000000000E+00    0.0000000000000000E+00
             0.0000000000000000E+00    0.0000000000000000E+00    0.0000000000000000E+00
             0.0000000000000000E+00    0.0000000000000000E+00    0.0000000000000000E+00
             0.0000000000000000E+00    0.0000000000000000E+00    0.0000000000000000E+00
             0.0000000000000000E+00    0.0000000000000000E+00    0.0000000000000000E+00
             0.0000000000000000E+00    0.0000000000000000E+00    0.0000000000000000E+00
             0.0000000000000000E+00    0.0000000000000000E+00    0.0000000000000000E+00
             0.0000000000000000E+00    0.0000000000000000E+00    0.0000000000000000E+00
             0.0000000000000000E+00    0.0000000000000000E+00    0.0000000000000000E+00
             0.0000000000000000E+00    0.0000000000000000E+00    0.0000000000000000E+00
             0.0000000000000000E+00    0.0000000000000000E+00    0.0000000000000000E+00
             0.0000000000000000E+00    0.0000000000000000E+00    0.0000000000000000E+00
             0.0000000000000000E+00    0.0000000000000000E+00    0.0000000000000000E+00
             0.0000000000000000E+00    0.0000000000000000E+00    0.0000000000000000E+00
             0.0000000000000000E+00    0.0000000000000000E+00    0.0000000000000000E+00
             0.0000000000000000E+00    0.0000000000000000E+00    0.0000000000000000E+00
             0.0000000000000000E+00    0.0000000000000000E+00    0.0000000000000000E+00
             0.0000000000000000E+00    0.0000000000000000E+00    0.0000000000000000E+00
             0.0000000000000000E+00    0.0000000000000000E+00    0.0000000000000000E+00
             0.0000000000000000E+00    0.0000000000000000E+00    0.0000000000000000E+00
             0.0000000000000000E+00    0.0000000000000000E+00    0.0000000000000000E+00
             0.0000000000000000E+00    0.0000000000000000E+00    0.0000000000000000E+00
             0.0000000000000000E+00    0.0000000000000000E+00    0.0000000000000000E+00
             0.0000000000000000E+00    0.0000000000000000E+00    0.0000000000000000E+00
             0.0000000000000000E+00    0.0000000000000000E+00    0.0000000000000000E+00
             0.0000000000000000E+00    0.0000000000000000E+00    0.0000000000000000E+00
             0.0000000000000000E+00    0.0000000000000000E+00    0.0000000000000000E+00
             0.0000000000000000E+00    0.0000000000000000E+00    0.0000000000000000E+00
             0.0000000000000000E+00    0.0000000000000000E+00    0.0000000000000000E+00
             0.0000000000000000E+00    0.0000000000000000E+00    0.0000000000000000E+00
             0.0000000000000000E+00    0.0000000000000000E+00    0.0000000000000000E+00
             0.0000000000000000E+00    0.0000000000000000E+00    0.0000000000000000E+00
             0.0000000000000000E+00    0.0000000000000000E+00    0.0000000000000000E+00
             0.0000000000000000E+00    0.0000000000000000E+00    0.0000000000000000E+00
             0.0000000000000000E+00    0.0000000000000000E+00    0.0000000000000000E+00
             0.0000000000000000E+00    0.0000000000000000E+00    0.0000000000000000E+00
             0.0000000000000000E+00    0.0000000000000000E+00    0.0000000000000000E+00
             0.0000000000000000E+00    0.0000000000000000E+00    0.0000000000000000E+00
             0.0000000000000000E+00    0.0000000000000000E+00    0.0000000000000000E+00
             0.0000000000000000E+00    0.0000000000000000E+00    0.0000000000000000E+00
             0.0000000000000000E+00    0.0000000000000000E+00    0.0000000000000000E+00
             0.0000000000000000E+00    0.0000000000000000E+00    0.0000000000000000E+00
             0.0000000000000000E+00    0.0000000000000000E+00    0.0000000000000000E+00
             0.0000000000000000E+00    0.0000000000000000E+00    0.0000000000000000E+00
             0.0000000000000000E+00    0.0000000000000000E+00    0.0000000000000000E+00
             0.0000000000000000E+00    0.0000000000000000E+00    0.0000000000000000E+00
             0.0000000000000000E+00    0.0000000000000000E+00    0.0000000000000000E+00
             0.0000000000000000E+00    0.0000000000000000E+00    0.0000000000000000E+00
             0.0000000000000000E+00    0.0000000000000000E+00    0.0000000000000000E+00
             0.0000000000000000E+00    0.0000000000000000E+00    0.0000000000000000E+00
             0.0000000000000000E+00    0.0000000000000000E+00    0.0000000000000000E+00
             0.0000000000000000E+00    0.0000000000000000E+00    0.0000000000000000E+00
             0.0000000000000000E+00    0.0000000000000000E+00    0.0000000000000000E+00
             0.0000000000000000E+00    0.0000000000000000E+00    0.0000000000000000E+00
             0.0000000000000000E+00    0.0000000000000000E+00    0.0000000000000000E+00
             0.0000000000000000E+00    0.0000000000000000E+00    0.0000000000000000E+00
             0.0000000000000000E+00    0.0000000000000000E+00    0.0000000000000000E+00
             0.0000000000000000E+00    0.0000000000000000E+00    0.0000000000000000E+00
             0.0000000000000000E+00    0.0000000000000000E+00    0.0000000000000000E+00