ATOMS
H             0.00000000      0.00000000     -0.01093506             0.00026421      0.69770543      0.11492200
H             0.00000000      0.00000000      0.74094157             0.00026421      0.69770543      0.11492200
