ATOMS
H             0.00000000      0.00000000     -0.01093506             0.00013890     -0.00005130     -0.70710677
H             0.00000000      0.00000000      0.74094157            -0.00013890      0.00005130      0.70710677
