 # Version information for this restart file 
 # current date 2024-01-13 06:58:31.780
 # current working dir /gpfs/home/cahart/transport/melamine/au_from-h2/ci-neb/ts1/dft_leads-sz_tip-dzvp_surf-dzvp_kpoints-2-4-20_replicas-5
 # Program compiled at                              Thu 21 Sep 19:20:17 BST 2023
 # Program compiled on                                           hx1-c12-login-1
 # Program compiled for                                                    local
 # Source code revision number                                       git:5518aa6
 &GLOBAL
   EXTENDED_FFT_LENGTHS  T
   PRINT_LEVEL  MEDIUM
   PROJECT_NAME 2_dft_wfn-r-0
   OUTPUT_FILE_NAME 2_dft_wfn-r-0.out
   RUN_TYPE  BAND
 &END GLOBAL
 &MOTION
   &BAND
     NPROC_REP  64
     BAND_TYPE  CI-NEB
     NUMBER_OF_REPLICA  5
     K_SPRING     5.0000000000000003E-02
     &CI_NEB
       NSTEPS_IT  5
     &END CI_NEB
     &OPTIMIZE_BAND
       OPT_TYPE  DIIS
       &DIIS
         MAX_STEPS  1000
       &END DIIS
     &END OPTIMIZE_BAND
     &REPLICA
       &COORD
             0.0000000000000000E+00    0.0000000000000000E+00    0.0000000000000000E+00
             0.0000000000000000E+00    2.9550000000000405E+00    0.0000000000000000E+00
             0.0000000000000000E+00    5.9110000000000822E+00    0.0000000000000000E+00
             2.9560000000000457E+00    0.0000000000000000E+00    0.0000000000000000E+00
             2.9560000000000457E+00    2.9550000000000405E+00    0.0000000000000000E+00
             2.9560000000000457E+00    5.9110000000000822E+00    0.0000000000000000E+00
             5.9120000000000914E+00    0.0000000000000000E+00    0.0000000000000000E+00
             5.9120000000000914E+00    2.9550000000000405E+00    0.0000000000000000E+00
             5.9120000000000914E+00    5.9110000000000822E+00    0.0000000000000000E+00
             8.6700000000001420E+00    0.0000000000000000E+00    0.0000000000000000E+00
             8.6700000000001420E+00    2.9550000000000405E+00    0.0000000000000000E+00
             8.6700000000001420E+00    5.9110000000000822E+00    0.0000000000000000E+00
             1.1626000000000175E+01    0.0000000000000000E+00    0.0000000000000000E+00
             1.1626000000000175E+01    2.9550000000000405E+00    0.0000000000000000E+00
             1.1626000000000175E+01    5.9110000000000822E+00    0.0000000000000000E+00
             1.4780000000000229E+00    1.4780000000000229E+00    2.0900000000000301E+00
             1.4780000000000229E+00    4.4330000000000673E+00    2.0900000000000301E+00
             1.4780000000000229E+00    7.3890000000001104E+00    2.0900000000000301E+00
             4.4340000000000659E+00    1.4780000000000229E+00    2.0900000000000301E+00
             4.4340000000000659E+00    4.4330000000000673E+00    2.0900000000000301E+00
             4.4340000000000659E+00    7.3890000000001104E+00    2.0900000000000301E+00
             7.1920000000001059E+00    1.4780000000000229E+00    2.0900000000000301E+00
             7.1920000000001059E+00    4.4330000000000673E+00    2.0900000000000301E+00
             7.1920000000001059E+00    7.3890000000001104E+00    2.0900000000000301E+00
             1.0148000000000151E+01    1.4780000000000229E+00    2.0900000000000301E+00
             1.0148000000000151E+01    4.4330000000000673E+00    2.0900000000000301E+00
             1.0148000000000151E+01    7.3890000000001104E+00    2.0900000000000301E+00
             1.3104000000000193E+01    1.4780000000000229E+00    2.0900000000000301E+00
             1.3104000000000193E+01    4.4330000000000673E+00    2.0900000000000301E+00
             1.3104000000000193E+01    7.3890000000001104E+00    2.0900000000000301E+00
             0.0000000000000000E+00    0.0000000000000000E+00    4.1800000000000601E+00
             0.0000000000000000E+00    2.9550000000000405E+00    4.1800000000000601E+00
             0.0000000000000000E+00    5.9110000000000822E+00    4.1800000000000601E+00
             2.9560000000000457E+00    0.0000000000000000E+00    4.1800000000000601E+00
             2.9560000000000457E+00    2.9550000000000405E+00    4.1800000000000601E+00
             2.9560000000000457E+00    5.9110000000000822E+00    4.1800000000000601E+00
             5.9120000000000914E+00    0.0000000000000000E+00    4.1800000000000601E+00
             5.9120000000000914E+00    2.9550000000000405E+00    4.1800000000000601E+00
             5.9120000000000914E+00    5.9110000000000822E+00    4.1800000000000601E+00
             8.6700000000001420E+00    0.0000000000000000E+00    4.1800000000000601E+00
             8.6700000000001420E+00    2.9550000000000405E+00    4.1800000000000601E+00
             8.6700000000001420E+00    5.9110000000000822E+00    4.1800000000000601E+00
             1.1626000000000175E+01    0.0000000000000000E+00    4.1800000000000601E+00
             1.1626000000000175E+01    2.9550000000000405E+00    4.1800000000000601E+00
             1.1626000000000175E+01    5.9110000000000822E+00    4.1800000000000601E+00
             1.4780000000000229E+00    1.4780000000000229E+00    6.2700000000000928E+00
             1.4780000000000229E+00    4.4330000000000673E+00    6.2700000000000928E+00
             1.4780000000000229E+00    7.3890000000001104E+00    6.2700000000000928E+00
             4.4340000000000659E+00    1.4780000000000229E+00    6.2700000000000928E+00
             4.4340000000000659E+00    4.4330000000000673E+00    6.2700000000000928E+00
             4.4340000000000659E+00    7.3890000000001104E+00    6.2700000000000928E+00
             7.1920000000001059E+00    1.4780000000000229E+00    6.2700000000000928E+00
             7.1920000000001059E+00    4.4330000000000673E+00    6.2700000000000928E+00
             7.1920000000001059E+00    7.3890000000001104E+00    6.2700000000000928E+00
             1.0148000000000151E+01    1.4780000000000229E+00    6.2700000000000928E+00
             1.0148000000000151E+01    4.4330000000000673E+00    6.2700000000000928E+00
             1.0148000000000151E+01    7.3890000000001104E+00    6.2700000000000928E+00
             1.3104000000000193E+01    1.4780000000000229E+00    6.2700000000000928E+00
             1.3104000000000193E+01    4.4330000000000673E+00    6.2700000000000928E+00
             1.3104000000000193E+01    7.3890000000001104E+00    6.2700000000000928E+00
             0.0000000000000000E+00    0.0000000000000000E+00    8.3600000000001202E+00
             0.0000000000000000E+00    2.9550000000000405E+00    8.3600000000001202E+00
             0.0000000000000000E+00    5.9110000000000822E+00    8.3600000000001202E+00
             2.9560000000000457E+00    0.0000000000000000E+00    8.3600000000001202E+00
             2.9560000000000457E+00    2.9550000000000405E+00    8.3600000000001202E+00
             2.9560000000000457E+00    5.9110000000000822E+00    8.3600000000001202E+00
             5.9120000000000914E+00    0.0000000000000000E+00    8.3600000000001202E+00
             5.9120000000000914E+00    2.9550000000000405E+00    8.3600000000001202E+00
             5.9120000000000914E+00    5.9110000000000822E+00    8.3600000000001202E+00
             8.6700000000001420E+00    0.0000000000000000E+00    8.3600000000001202E+00
             8.6700000000001420E+00    2.9550000000000405E+00    8.3600000000001202E+00
             8.6700000000001420E+00    5.9110000000000822E+00    8.3600000000001202E+00
             1.1626000000000175E+01    0.0000000000000000E+00    8.3600000000001202E+00
             1.1626000000000175E+01    2.9550000000000405E+00    8.3600000000001202E+00
             1.1626000000000175E+01    5.9110000000000822E+00    8.3600000000001202E+00
             1.4780000000000229E+00    1.4780000000000229E+00    1.0450000000000157E+01
             1.4780000000000229E+00    4.4330000000000673E+00    1.0450000000000157E+01
             1.4780000000000229E+00    7.3890000000001104E+00    1.0450000000000157E+01
             4.4340000000000659E+00    1.4780000000000229E+00    1.0450000000000157E+01
             4.4340000000000659E+00    4.4330000000000673E+00    1.0450000000000157E+01
             4.4340000000000659E+00    7.3890000000001104E+00    1.0450000000000157E+01
             7.1920000000001059E+00    1.4780000000000229E+00    1.0450000000000157E+01
             7.1920000000001059E+00    4.4330000000000673E+00    1.0450000000000157E+01
             7.1920000000001059E+00    7.3890000000001104E+00    1.0450000000000157E+01
             1.0148000000000151E+01    1.4780000000000229E+00    1.0450000000000157E+01
             1.0148000000000151E+01    4.4330000000000673E+00    1.0450000000000157E+01
             1.0148000000000151E+01    7.3890000000001104E+00    1.0450000000000157E+01
             1.3104000000000193E+01    1.4780000000000229E+00    1.0450000000000157E+01
             1.3104000000000193E+01    4.4330000000000673E+00    1.0450000000000157E+01
             1.3104000000000193E+01    7.3890000000001104E+00    1.0450000000000157E+01
             4.8554000000000812E+00    5.9119000000000863E+00    1.2031800000000182E+01
             9.5280000000001426E+00    5.9137000000000866E+00    1.2034000000000189E+01
             7.1920000000001059E+00    5.9340000000000952E+00    1.2040000000000184E+01
             4.0750319168000582E+00    5.9049488170000917E+00    1.2696844061800183E+01
             1.0293988349500149E+01    5.9062142779000837E+00    1.2716532694500206E+01
             6.0099999686000931E+00    5.9120523853000906E+00    1.2765819797400189E+01
             8.3750478948001224E+00    5.9129627335000814E+00    1.2760746495900186E+01
             8.4047327065001252E+00    5.8893877816000852E+00    1.4094060897200187E+01
             5.9788500869000964E+00    5.8882515165000875E+00    1.4094239568500223E+01
             7.1943473363001056E+00    5.8799164377000839E+00    1.4701118490300217E+01
             7.1912293097001028E+00    5.8521058221000928E+00    1.6050622658200247E+01
             6.3086348447001024E+00    5.8615539361000923E+00    1.6548439365000245E+01
             8.0709262665001216E+00    5.8621389354000808E+00    1.6553588809700255E+01
             7.3120000000001113E+00    5.9340000000000952E+00    2.1043000000000294E+01
             5.8130000000000877E+00    7.4340000000001156E+00    2.2992000000000367E+01
             8.8130000000001303E+00    4.4340000000000659E+00    2.2992000000000367E+01
             5.8130000000000877E+00    4.4330000000000673E+00    2.2992000000000367E+01
             8.8130000000001303E+00    7.4340000000001156E+00    2.2992000000000367E+01
             1.4780000000000229E+00    1.4780000000000229E+00    2.5082000000000328E+01
             1.4780000000000229E+00    4.4330000000000673E+00    2.5082000000000328E+01
             1.4780000000000229E+00    7.3890000000001104E+00    2.5082000000000328E+01
             4.4340000000000659E+00    1.4780000000000229E+00    2.5082000000000328E+01
             4.4340000000000659E+00    4.4330000000000673E+00    2.5082000000000328E+01
             4.4340000000000659E+00    7.3890000000001104E+00    2.5082000000000328E+01
             7.1920000000001059E+00    1.4780000000000229E+00    2.5082000000000328E+01
             7.1920000000001059E+00    4.4330000000000673E+00    2.5082000000000328E+01
             7.1920000000001059E+00    7.3890000000001104E+00    2.5082000000000328E+01
             1.0148000000000151E+01    1.4780000000000229E+00    2.5082000000000328E+01
             1.0148000000000151E+01    4.4330000000000673E+00    2.5082000000000328E+01
             1.0148000000000151E+01    7.3890000000001104E+00    2.5082000000000328E+01
             1.3104000000000193E+01    1.4780000000000229E+00    2.5082000000000328E+01
             1.3104000000000193E+01    4.4330000000000673E+00    2.5082000000000328E+01
             1.3104000000000193E+01    7.3890000000001104E+00    2.5082000000000328E+01
             0.0000000000000000E+00    0.0000000000000000E+00    2.7172000000000409E+01
             0.0000000000000000E+00    2.9550000000000405E+00    2.7172000000000409E+01
             0.0000000000000000E+00    5.9110000000000822E+00    2.7172000000000409E+01
             2.9560000000000457E+00    0.0000000000000000E+00    2.7172000000000409E+01
             2.9560000000000457E+00    2.9550000000000405E+00    2.7172000000000409E+01
             2.9560000000000457E+00    5.9110000000000822E+00    2.7172000000000409E+01
             5.9120000000000914E+00    0.0000000000000000E+00    2.7172000000000409E+01
             5.9120000000000914E+00    2.9550000000000405E+00    2.7172000000000409E+01
             5.9120000000000914E+00    5.9110000000000822E+00    2.7172000000000409E+01
             8.6700000000001420E+00    0.0000000000000000E+00    2.7172000000000409E+01
             8.6700000000001420E+00    2.9550000000000405E+00    2.7172000000000409E+01
             8.6700000000001420E+00    5.9110000000000822E+00    2.7172000000000409E+01
             1.1626000000000175E+01    0.0000000000000000E+00    2.7172000000000409E+01
             1.1626000000000175E+01    2.9550000000000405E+00    2.7172000000000409E+01
             1.1626000000000175E+01    5.9110000000000822E+00    2.7172000000000409E+01
             1.4780000000000229E+00    1.4780000000000229E+00    2.9262000000000420E+01
             1.4780000000000229E+00    4.4330000000000673E+00    2.9262000000000420E+01
             1.4780000000000229E+00    7.3890000000001104E+00    2.9262000000000420E+01
             4.4340000000000659E+00    1.4780000000000229E+00    2.9262000000000420E+01
             4.4340000000000659E+00    4.4330000000000673E+00    2.9262000000000420E+01
             4.4340000000000659E+00    7.3890000000001104E+00    2.9262000000000420E+01
             7.1920000000001059E+00    1.4780000000000229E+00    2.9262000000000420E+01
             7.1920000000001059E+00    4.4330000000000673E+00    2.9262000000000420E+01
             7.1920000000001059E+00    7.3890000000001104E+00    2.9262000000000420E+01
             1.0148000000000151E+01    1.4780000000000229E+00    2.9262000000000420E+01
             1.0148000000000151E+01    4.4330000000000673E+00    2.9262000000000420E+01
             1.0148000000000151E+01    7.3890000000001104E+00    2.9262000000000420E+01
             1.3104000000000193E+01    1.4780000000000229E+00    2.9262000000000420E+01
             1.3104000000000193E+01    4.4330000000000673E+00    2.9262000000000420E+01
             1.3104000000000193E+01    7.3890000000001104E+00    2.9262000000000420E+01
             0.0000000000000000E+00    0.0000000000000000E+00    3.1352000000000480E+01
             0.0000000000000000E+00    2.9550000000000405E+00    3.1352000000000480E+01
             0.0000000000000000E+00    5.9110000000000822E+00    3.1352000000000480E+01
             2.9560000000000457E+00    0.0000000000000000E+00    3.1352000000000480E+01
             2.9560000000000457E+00    2.9550000000000405E+00    3.1352000000000480E+01
             2.9560000000000457E+00    5.9110000000000822E+00    3.1352000000000480E+01
             5.9120000000000914E+00    0.0000000000000000E+00    3.1352000000000480E+01
             5.9120000000000914E+00    2.9550000000000405E+00    3.1352000000000480E+01
             5.9120000000000914E+00    5.9110000000000822E+00    3.1352000000000480E+01
             8.6700000000001420E+00    0.0000000000000000E+00    3.1352000000000480E+01
             8.6700000000001420E+00    2.9550000000000405E+00    3.1352000000000480E+01
             8.6700000000001420E+00    5.9110000000000822E+00    3.1352000000000480E+01
             1.1626000000000175E+01    0.0000000000000000E+00    3.1352000000000480E+01
             1.1626000000000175E+01    2.9550000000000405E+00    3.1352000000000480E+01
             1.1626000000000175E+01    5.9110000000000822E+00    3.1352000000000480E+01
             1.4780000000000229E+00    1.4780000000000229E+00    3.3442000000000505E+01
             1.4780000000000229E+00    4.4330000000000673E+00    3.3442000000000505E+01
             1.4780000000000229E+00    7.3890000000001104E+00    3.3442000000000505E+01
             4.4340000000000659E+00    1.4780000000000229E+00    3.3442000000000505E+01
             4.4340000000000659E+00    4.4330000000000673E+00    3.3442000000000505E+01
             4.4340000000000659E+00    7.3890000000001104E+00    3.3442000000000505E+01
             7.1920000000001059E+00    1.4780000000000229E+00    3.3442000000000505E+01
             7.1920000000001059E+00    4.4330000000000673E+00    3.3442000000000505E+01
             7.1920000000001059E+00    7.3890000000001104E+00    3.3442000000000505E+01
             1.0148000000000151E+01    1.4780000000000229E+00    3.3442000000000505E+01
             1.0148000000000151E+01    4.4330000000000673E+00    3.3442000000000505E+01
             1.0148000000000151E+01    7.3890000000001104E+00    3.3442000000000505E+01
             1.3104000000000193E+01    1.4780000000000229E+00    3.3442000000000505E+01
             1.3104000000000193E+01    4.4330000000000673E+00    3.3442000000000505E+01
             1.3104000000000193E+01    7.3890000000001104E+00    3.3442000000000505E+01
       &END COORD
       &VELOCITY
             0.0000000000000000E+00    0.0000000000000000E+00    0.0000000000000000E+00
             0.0000000000000000E+00    0.0000000000000000E+00    0.0000000000000000E+00
             0.0000000000000000E+00    0.0000000000000000E+00    0.0000000000000000E+00
             0.0000000000000000E+00    0.0000000000000000E+00    0.0000000000000000E+00
             0.0000000000000000E+00    0.0000000000000000E+00    0.0000000000000000E+00
             0.0000000000000000E+00    0.0000000000000000E+00    0.0000000000000000E+00
             0.0000000000000000E+00    0.0000000000000000E+00    0.0000000000000000E+00
             0.0000000000000000E+00    0.0000000000000000E+00    0.0000000000000000E+00
             0.0000000000000000E+00    0.0000000000000000E+00    0.0000000000000000E+00
             0.0000000000000000E+00    0.0000000000000000E+00    0.0000000000000000E+00
             0.0000000000000000E+00    0.0000000000000000E+00    0.0000000000000000E+00
             0.0000000000000000E+00    0.0000000000000000E+00    0.0000000000000000E+00
             0.0000000000000000E+00    0.0000000000000000E+00    0.0000000000000000E+00
             0.0000000000000000E+00    0.0000000000000000E+00    0.0000000000000000E+00
             0.0000000000000000E+00    0.0000000000000000E+00    0.0000000000000000E+00
             0.0000000000000000E+00    0.0000000000000000E+00    0.0000000000000000E+00
             0.0000000000000000E+00    0.0000000000000000E+00    0.0000000000000000E+00
             0.0000000000000000E+00    0.0000000000000000E+00    0.0000000000000000E+00
             0.0000000000000000E+00    0.0000000000000000E+00    0.0000000000000000E+00
             0.0000000000000000E+00    0.0000000000000000E+00    0.0000000000000000E+00
             0.0000000000000000E+00    0.0000000000000000E+00    0.0000000000000000E+00
             0.0000000000000000E+00    0.0000000000000000E+00    0.0000000000000000E+00
             0.0000000000000000E+00    0.0000000000000000E+00    0.0000000000000000E+00
             0.0000000000000000E+00    0.0000000000000000E+00    0.0000000000000000E+00
             0.0000000000000000E+00    0.0000000000000000E+00    0.0000000000000000E+00
             0.0000000000000000E+00    0.0000000000000000E+00    0.0000000000000000E+00
             0.0000000000000000E+00    0.0000000000000000E+00    0.0000000000000000E+00
             0.0000000000000000E+00    0.0000000000000000E+00    0.0000000000000000E+00
             0.0000000000000000E+00    0.0000000000000000E+00    0.0000000000000000E+00
             0.0000000000000000E+00    0.0000000000000000E+00    0.0000000000000000E+00
             0.0000000000000000E+00    0.0000000000000000E+00    0.0000000000000000E+00
             0.0000000000000000E+00    0.0000000000000000E+00    0.0000000000000000E+00
             0.0000000000000000E+00    0.0000000000000000E+00    0.0000000000000000E+00
             0.0000000000000000E+00    0.0000000000000000E+00    0.0000000000000000E+00
             0.0000000000000000E+00    0.0000000000000000E+00    0.0000000000000000E+00
             0.0000000000000000E+00    0.0000000000000000E+00    0.0000000000000000E+00
             0.0000000000000000E+00    0.0000000000000000E+00    0.0000000000000000E+00
             0.0000000000000000E+00    0.0000000000000000E+00    0.0000000000000000E+00
             0.0000000000000000E+00    0.0000000000000000E+00    0.0000000000000000E+00
             0.0000000000000000E+00    0.0000000000000000E+00    0.0000000000000000E+00
             0.0000000000000000E+00    0.0000000000000000E+00    0.0000000000000000E+00
             0.0000000000000000E+00    0.0000000000000000E+00    0.0000000000000000E+00
             0.0000000000000000E+00    0.0000000000000000E+00    0.0000000000000000E+00
             0.0000000000000000E+00    0.0000000000000000E+00    0.0000000000000000E+00
             0.0000000000000000E+00    0.0000000000000000E+00    0.0000000000000000E+00
             0.0000000000000000E+00    0.0000000000000000E+00    0.0000000000000000E+00
             0.0000000000000000E+00    0.0000000000000000E+00    0.0000000000000000E+00
             0.0000000000000000E+00    0.0000000000000000E+00    0.0000000000000000E+00
             0.0000000000000000E+00    0.0000000000000000E+00    0.0000000000000000E+00
             0.0000000000000000E+00    0.0000000000000000E+00    0.0000000000000000E+00
             0.0000000000000000E+00    0.0000000000000000E+00    0.0000000000000000E+00
             0.0000000000000000E+00    0.0000000000000000E+00    0.0000000000000000E+00
             0.0000000000000000E+00    0.0000000000000000E+00    0.0000000000000000E+00
             0.0000000000000000E+00    0.0000000000000000E+00    0.0000000000000000E+00
             0.0000000000000000E+00    0.0000000000000000E+00    0.0000000000000000E+00
             0.0000000000000000E+00    0.0000000000000000E+00    0.0000000000000000E+00
             0.0000000000000000E+00    0.0000000000000000E+00    0.0000000000000000E+00
             0.0000000000000000E+00    0.0000000000000000E+00    0.0000000000000000E+00
             0.0000000000000000E+00    0.0000000000000000E+00    0.0000000000000000E+00
             0.0000000000000000E+00    0.0000000000000000E+00    0.0000000000000000E+00
             0.0000000000000000E+00    0.0000000000000000E+00    0.0000000000000000E+00
             0.0000000000000000E+00    0.0000000000000000E+00    0.0000000000000000E+00
             0.0000000000000000E+00    0.0000000000000000E+00    0.0000000000000000E+00
             0.0000000000000000E+00    0.0000000000000000E+00    0.0000000000000000E+00
             0.0000000000000000E+00    0.0000000000000000E+00    0.0000000000000000E+00
             0.0000000000000000E+00    0.0000000000000000E+00    0.0000000000000000E+00
             0.0000000000000000E+00    0.0000000000000000E+00    0.0000000000000000E+00
             0.0000000000000000E+00    0.0000000000000000E+00    0.0000000000000000E+00
             0.0000000000000000E+00    0.0000000000000000E+00    0.0000000000000000E+00
             0.0000000000000000E+00    0.0000000000000000E+00    0.0000000000000000E+00
             0.0000000000000000E+00    0.0000000000000000E+00    0.0000000000000000E+00
             0.0000000000000000E+00    0.0000000000000000E+00    0.0000000000000000E+00
             0.0000000000000000E+00    0.0000000000000000E+00    0.0000000000000000E+00
             0.0000000000000000E+00    0.0000000000000000E+00    0.0000000000000000E+00
             0.0000000000000000E+00    0.0000000000000000E+00    0.0000000000000000E+00
             0.0000000000000000E+00    0.0000000000000000E+00    0.0000000000000000E+00
             0.0000000000000000E+00    0.0000000000000000E+00    0.0000000000000000E+00
             0.0000000000000000E+00    0.0000000000000000E+00    0.0000000000000000E+00
             0.0000000000000000E+00    0.0000000000000000E+00    0.0000000000000000E+00
             0.0000000000000000E+00    0.0000000000000000E+00    0.0000000000000000E+00
             0.0000000000000000E+00    0.0000000000000000E+00    0.0000000000000000E+00
             0.0000000000000000E+00    0.0000000000000000E+00    0.0000000000000000E+00
             0.0000000000000000E+00    0.0000000000000000E+00    0.0000000000000000E+00
             0.0000000000000000E+00    0.0000000000000000E+00    0.0000000000000000E+00
             0.0000000000000000E+00    0.0000000000000000E+00    0.0000000000000000E+00
             0.0000000000000000E+00    0.0000000000000000E+00    0.0000000000000000E+00
             0.0000000000000000E+00    0.0000000000000000E+00    0.0000000000000000E+00
             0.0000000000000000E+00    0.0000000000000000E+00    0.0000000000000000E+00
             0.0000000000000000E+00    0.0000000000000000E+00    0.0000000000000000E+00
             0.0000000000000000E+00    0.0000000000000000E+00    0.0000000000000000E+00
             0.0000000000000000E+00    0.0000000000000000E+00    0.0000000000000000E+00
             0.0000000000000000E+00    0.0000000000000000E+00    0.0000000000000000E+00
             0.0000000000000000E+00    0.0000000000000000E+00    0.0000000000000000E+00
             0.0000000000000000E+00    0.0000000000000000E+00    0.0000000000000000E+00
             0.0000000000000000E+00    0.0000000000000000E+00    0.0000000000000000E+00
             0.0000000000000000E+00    0.0000000000000000E+00    0.0000000000000000E+00
             0.0000000000000000E+00    0.0000000000000000E+00    0.0000000000000000E+00
             0.0000000000000000E+00    0.0000000000000000E+00    0.0000000000000000E+00
             0.0000000000000000E+00    0.0000000000000000E+00    0.0000000000000000E+00
             0.0000000000000000E+00    0.0000000000000000E+00    0.0000000000000000E+00
             0.0000000000000000E+00    0.0000000000000000E+00    0.0000000000000000E+00
             0.0000000000000000E+00    0.0000000000000000E+00    0.0000000000000000E+00
             0.0000000000000000E+00    0.0000000000000000E+00    0.0000000000000000E+00
             0.0000000000000000E+00    0.0000000000000000E+00    0.0000000000000000E+00
             0.0000000000000000E+00    0.0000000000000000E+00    0.0000000000000000E+00
             0.0000000000000000E+00    0.0000000000000000E+00    0.0000000000000000E+00
             0.0000000000000000E+00    0.0000000000000000E+00    0.0000000000000000E+00
             0.0000000000000000E+00    0.0000000000000000E+00    0.0000000000000000E+00
             0.0000000000000000E+00    0.0000000000000000E+00    0.0000000000000000E+00
             0.0000000000000000E+00    0.0000000000000000E+00    0.0000000000000000E+00
             0.0000000000000000E+00    0.0000000000000000E+00    0.0000000000000000E+00
             0.0000000000000000E+00    0.0000000000000000E+00    0.0000000000000000E+00
             0.0000000000000000E+00    0.0000000000000000E+00    0.0000000000000000E+00
             0.0000000000000000E+00    0.0000000000000000E+00    0.0000000000000000E+00
             0.0000000000000000E+00    0.0000000000000000E+00    0.0000000000000000E+00
             0.0000000000000000E+00    0.0000000000000000E+00    0.0000000000000000E+00
             0.0000000000000000E+00    0.0000000000000000E+00    0.0000000000000000E+00
             0.0000000000000000E+00    0.0000000000000000E+00    0.0000000000000000E+00
             0.0000000000000000E+00    0.0000000000000000E+00    0.0000000000000000E+00
             0.0000000000000000E+00    0.0000000000000000E+00    0.0000000000000000E+00
             0.0000000000000000E+00    0.0000000000000000E+00    0.0000000000000000E+00
             0.0000000000000000E+00    0.0000000000000000E+00    0.0000000000000000E+00
             0.0000000000000000E+00    0.0000000000000000E+00    0.0000000000000000E+00
             0.0000000000000000E+00    0.0000000000000000E+00    0.0000000000000000E+00
             0.0000000000000000E+00    0.0000000000000000E+00    0.0000000000000000E+00
             0.0000000000000000E+00    0.0000000000000000E+00    0.0000000000000000E+00
             0.0000000000000000E+00    0.0000000000000000E+00    0.0000000000000000E+00
             0.0000000000000000E+00    0.0000000000000000E+00    0.0000000000000000E+00
             0.0000000000000000E+00    0.0000000000000000E+00    0.0000000000000000E+00
             0.0000000000000000E+00    0.0000000000000000E+00    0.0000000000000000E+00
             0.0000000000000000E+00    0.0000000000000000E+00    0.0000000000000000E+00
             0.0000000000000000E+00    0.0000000000000000E+00    0.0000000000000000E+00
             0.0000000000000000E+00    0.0000000000000000E+00    0.0000000000000000E+00
             0.0000000000000000E+00    0.0000000000000000E+00    0.0000000000000000E+00
             0.0000000000000000E+00    0.0000000000000000E+00    0.0000000000000000E+00
             0.0000000000000000E+00    0.0000000000000000E+00    0.0000000000000000E+00
             0.0000000000000000E+00    0.0000000000000000E+00    0.0000000000000000E+00
             0.0000000000000000E+00    0.0000000000000000E+00    0.0000000000000000E+00
             0.0000000000000000E+00    0.0000000000000000E+00    0.0000000000000000E+00
             0.0000000000000000E+00    0.0000000000000000E+00    0.0000000000000000E+00
             0.0000000000000000E+00    0.0000000000000000E+00    0.0000000000000000E+00
             0.0000000000000000E+00    0.0000000000000000E+00    0.0000000000000000E+00
             0.0000000000000000E+00    0.0000000000000000E+00    0.0000000000000000E+00
             0.0000000000000000E+00    0.0000000000000000E+00    0.0000000000000000E+00
             0.0000000000000000E+00    0.0000000000000000E+00    0.0000000000000000E+00