 # Version information for this restart file 
 # current date 2024-01-12 12:27:29.004
 # current working dir /gpfs/home/cahart/transport/melamine/au_from-h2/ci-neb/ts1/dft_leads-sz_tip-dzvp_surf-dzvp_kpoints-2-4-20_replicas-5
 # Program compiled at                              Thu 21 Sep 19:20:17 BST 2023
 # Program compiled on                                           hx1-c12-login-1
 # Program compiled for                                                    local
 # Source code revision number                                       git:5518aa6
 &GLOBAL
   EXTENDED_FFT_LENGTHS  T
   PRINT_LEVEL  MEDIUM
   PROJECT_NAME 2_dft_wfn-r-0
   OUTPUT_FILE_NAME 2_dft_wfn-r-0.out
   RUN_TYPE  BAND
 &END GLOBAL
 &MOTION
   &BAND
     NPROC_REP  64
     BAND_TYPE  CI-NEB
     NUMBER_OF_REPLICA  5
     K_SPRING     5.0000000000000003E-02
     &CI_NEB
       NSTEPS_IT  5
     &END CI_NEB
     &OPTIMIZE_BAND
       OPT_TYPE  DIIS
       &DIIS
         MAX_STEPS  1000
       &END DIIS
     &END OPTIMIZE_BAND
     &REPLICA
       &COORD
             0.0000000000000000E+00    0.0000000000000000E+00    0.0000000000000000E+00
             0.0000000000000000E+00    2.9550000000000134E+00    0.0000000000000000E+00
             0.0000000000000000E+00    5.9110000000000262E+00    0.0000000000000000E+00
             2.9560000000000128E+00    0.0000000000000000E+00    0.0000000000000000E+00
             2.9560000000000128E+00    2.9550000000000134E+00    0.0000000000000000E+00
             2.9560000000000128E+00    5.9110000000000262E+00    0.0000000000000000E+00
             5.9120000000000257E+00    0.0000000000000000E+00    0.0000000000000000E+00
             5.9120000000000257E+00    2.9550000000000134E+00    0.0000000000000000E+00
             5.9120000000000257E+00    5.9110000000000262E+00    0.0000000000000000E+00
             8.6700000000000355E+00    0.0000000000000000E+00    0.0000000000000000E+00
             8.6700000000000355E+00    2.9550000000000134E+00    0.0000000000000000E+00
             8.6700000000000355E+00    5.9110000000000262E+00    0.0000000000000000E+00
             1.1626000000000053E+01    0.0000000000000000E+00    0.0000000000000000E+00
             1.1626000000000053E+01    2.9550000000000134E+00    0.0000000000000000E+00
             1.1626000000000053E+01    5.9110000000000262E+00    0.0000000000000000E+00
             1.4780000000000064E+00    1.4780000000000064E+00    2.0900000000000092E+00
             1.4780000000000064E+00    4.4330000000000203E+00    2.0900000000000092E+00
             1.4780000000000064E+00    7.3890000000000322E+00    2.0900000000000092E+00
             4.4340000000000179E+00    1.4780000000000064E+00    2.0900000000000092E+00
             4.4340000000000179E+00    4.4330000000000203E+00    2.0900000000000092E+00
             4.4340000000000179E+00    7.3890000000000322E+00    2.0900000000000092E+00
             7.1920000000000330E+00    1.4780000000000064E+00    2.0900000000000092E+00
             7.1920000000000330E+00    4.4330000000000203E+00    2.0900000000000092E+00
             7.1920000000000330E+00    7.3890000000000322E+00    2.0900000000000092E+00
             1.0148000000000042E+01    1.4780000000000064E+00    2.0900000000000092E+00
             1.0148000000000042E+01    4.4330000000000203E+00    2.0900000000000092E+00
             1.0148000000000042E+01    7.3890000000000322E+00    2.0900000000000092E+00
             1.3104000000000054E+01    1.4780000000000064E+00    2.0900000000000092E+00
             1.3104000000000054E+01    4.4330000000000203E+00    2.0900000000000092E+00
             1.3104000000000054E+01    7.3890000000000322E+00    2.0900000000000092E+00
             0.0000000000000000E+00    0.0000000000000000E+00    4.1800000000000184E+00
             0.0000000000000000E+00    2.9550000000000134E+00    4.1800000000000184E+00
             0.0000000000000000E+00    5.9110000000000262E+00    4.1800000000000184E+00
             2.9560000000000128E+00    0.0000000000000000E+00    4.1800000000000184E+00
             2.9560000000000128E+00    2.9550000000000134E+00    4.1800000000000184E+00
             2.9560000000000128E+00    5.9110000000000262E+00    4.1800000000000184E+00
             5.9120000000000257E+00    0.0000000000000000E+00    4.1800000000000184E+00
             5.9120000000000257E+00    2.9550000000000134E+00    4.1800000000000184E+00
             5.9120000000000257E+00    5.9110000000000262E+00    4.1800000000000184E+00
             8.6700000000000355E+00    0.0000000000000000E+00    4.1800000000000184E+00
             8.6700000000000355E+00    2.9550000000000134E+00    4.1800000000000184E+00
             8.6700000000000355E+00    5.9110000000000262E+00    4.1800000000000184E+00
             1.1626000000000053E+01    0.0000000000000000E+00    4.1800000000000184E+00
             1.1626000000000053E+01    2.9550000000000134E+00    4.1800000000000184E+00
             1.1626000000000053E+01    5.9110000000000262E+00    4.1800000000000184E+00
             1.4780000000000064E+00    1.4780000000000064E+00    6.2700000000000262E+00
             1.4780000000000064E+00    4.4330000000000203E+00    6.2700000000000262E+00
             1.4780000000000064E+00    7.3890000000000322E+00    6.2700000000000262E+00
             4.4340000000000179E+00    1.4780000000000064E+00    6.2700000000000262E+00
             4.4340000000000179E+00    4.4330000000000203E+00    6.2700000000000262E+00
             4.4340000000000179E+00    7.3890000000000322E+00    6.2700000000000262E+00
             7.1920000000000330E+00    1.4780000000000064E+00    6.2700000000000262E+00
             7.1920000000000330E+00    4.4330000000000203E+00    6.2700000000000262E+00
             7.1920000000000330E+00    7.3890000000000322E+00    6.2700000000000262E+00
             1.0148000000000042E+01    1.4780000000000064E+00    6.2700000000000262E+00
             1.0148000000000042E+01    4.4330000000000203E+00    6.2700000000000262E+00
             1.0148000000000042E+01    7.3890000000000322E+00    6.2700000000000262E+00
             1.3104000000000054E+01    1.4780000000000064E+00    6.2700000000000262E+00
             1.3104000000000054E+01    4.4330000000000203E+00    6.2700000000000262E+00
             1.3104000000000054E+01    7.3890000000000322E+00    6.2700000000000262E+00
             0.0000000000000000E+00    0.0000000000000000E+00    8.3600000000000367E+00
             0.0000000000000000E+00    2.9550000000000134E+00    8.3600000000000367E+00
             0.0000000000000000E+00    5.9110000000000262E+00    8.3600000000000367E+00
             2.9560000000000128E+00    0.0000000000000000E+00    8.3600000000000367E+00
             2.9560000000000128E+00    2.9550000000000134E+00    8.3600000000000367E+00
             2.9560000000000128E+00    5.9110000000000262E+00    8.3600000000000367E+00
             5.9120000000000257E+00    0.0000000000000000E+00    8.3600000000000367E+00
             5.9120000000000257E+00    2.9550000000000134E+00    8.3600000000000367E+00
             5.9120000000000257E+00    5.9110000000000262E+00    8.3600000000000367E+00
             8.6700000000000355E+00    0.0000000000000000E+00    8.3600000000000367E+00
             8.6700000000000355E+00    2.9550000000000134E+00    8.3600000000000367E+00
             8.6700000000000355E+00    5.9110000000000262E+00    8.3600000000000367E+00
             1.1626000000000053E+01    0.0000000000000000E+00    8.3600000000000367E+00
             1.1626000000000053E+01    2.9550000000000134E+00    8.3600000000000367E+00
             1.1626000000000053E+01    5.9110000000000262E+00    8.3600000000000367E+00
             1.4780000000000064E+00    1.4780000000000064E+00    1.0450000000000044E+01
             1.4780000000000064E+00    4.4330000000000203E+00    1.0450000000000044E+01
             1.4780000000000064E+00    7.3890000000000322E+00    1.0450000000000044E+01
             4.4340000000000179E+00    1.4780000000000064E+00    1.0450000000000044E+01
             4.4340000000000179E+00    4.4330000000000203E+00    1.0450000000000044E+01
             4.4340000000000179E+00    7.3890000000000322E+00    1.0450000000000044E+01
             7.1920000000000330E+00    1.4780000000000064E+00    1.0450000000000044E+01
             7.1920000000000330E+00    4.4330000000000203E+00    1.0450000000000044E+01
             7.1920000000000330E+00    7.3890000000000322E+00    1.0450000000000044E+01
             1.0148000000000042E+01    1.4780000000000064E+00    1.0450000000000044E+01
             1.0148000000000042E+01    4.4330000000000203E+00    1.0450000000000044E+01
             1.0148000000000042E+01    7.3890000000000322E+00    1.0450000000000044E+01
             1.3104000000000054E+01    1.4780000000000064E+00    1.0450000000000044E+01
             1.3104000000000054E+01    4.4330000000000203E+00    1.0450000000000044E+01
             1.3104000000000054E+01    7.3890000000000322E+00    1.0450000000000044E+01
             4.8554000000000226E+00    5.9119000000000268E+00    1.2031800000000057E+01
             9.5280000000000431E+00    5.9137000000000262E+00    1.2034000000000056E+01
             7.1920000000000330E+00    5.9340000000000259E+00    1.2040000000000051E+01
             4.0750319168000182E+00    5.9049488170000251E+00    1.2696844061800055E+01
             1.0293988349500042E+01    5.9062142779000260E+00    1.2716532694500057E+01
             6.0099999686000283E+00    5.9120523853000249E+00    1.2765819797400058E+01
             8.3750478948000353E+00    5.9129627335000245E+00    1.2760746495900058E+01
             8.4047327065000363E+00    5.8893877816000266E+00    1.4094060897200061E+01
             5.9788500869000254E+00    5.8882515165000262E+00    1.4094239568500061E+01
             7.1943473363000310E+00    5.8799164377000261E+00    1.4701118490300066E+01
             7.1912293097000326E+00    5.8521058221000262E+00    1.6050622658200066E+01
             6.3086348447000287E+00    5.8615539361000266E+00    1.6548439365000075E+01
             8.0709262665000363E+00    5.8621389354000248E+00    1.6553588809700070E+01
             7.3120000000000331E+00    5.9340000000000259E+00    2.1043000000000092E+01
             5.8130000000000264E+00    7.4340000000000312E+00    2.2992000000000100E+01
             8.8130000000000397E+00    4.4340000000000179E+00    2.2992000000000100E+01
             5.8130000000000264E+00    4.4330000000000203E+00    2.2992000000000100E+01
             8.8130000000000397E+00    7.4340000000000312E+00    2.2992000000000100E+01
             1.4780000000000064E+00    1.4780000000000064E+00    2.5082000000000118E+01
             1.4780000000000064E+00    4.4330000000000203E+00    2.5082000000000118E+01
             1.4780000000000064E+00    7.3890000000000322E+00    2.5082000000000118E+01
             4.4340000000000179E+00    1.4780000000000064E+00    2.5082000000000118E+01
             4.4340000000000179E+00    4.4330000000000203E+00    2.5082000000000118E+01
             4.4340000000000179E+00    7.3890000000000322E+00    2.5082000000000118E+01
             7.1920000000000330E+00    1.4780000000000064E+00    2.5082000000000118E+01
             7.1920000000000330E+00    4.4330000000000203E+00    2.5082000000000118E+01
             7.1920000000000330E+00    7.3890000000000322E+00    2.5082000000000118E+01
             1.0148000000000042E+01    1.4780000000000064E+00    2.5082000000000118E+01
             1.0148000000000042E+01    4.4330000000000203E+00    2.5082000000000118E+01
             1.0148000000000042E+01    7.3890000000000322E+00    2.5082000000000118E+01
             1.3104000000000054E+01    1.4780000000000064E+00    2.5082000000000118E+01
             1.3104000000000054E+01    4.4330000000000203E+00    2.5082000000000118E+01
             1.3104000000000054E+01    7.3890000000000322E+00    2.5082000000000118E+01
             0.0000000000000000E+00    0.0000000000000000E+00    2.7172000000000121E+01
             0.0000000000000000E+00    2.9550000000000134E+00    2.7172000000000121E+01
             0.0000000000000000E+00    5.9110000000000262E+00    2.7172000000000121E+01
             2.9560000000000128E+00    0.0000000000000000E+00    2.7172000000000121E+01
             2.9560000000000128E+00    2.9550000000000134E+00    2.7172000000000121E+01
             2.9560000000000128E+00    5.9110000000000262E+00    2.7172000000000121E+01
             5.9120000000000257E+00    0.0000000000000000E+00    2.7172000000000121E+01
             5.9120000000000257E+00    2.9550000000000134E+00    2.7172000000000121E+01
             5.9120000000000257E+00    5.9110000000000262E+00    2.7172000000000121E+01
             8.6700000000000355E+00    0.0000000000000000E+00    2.7172000000000121E+01
             8.6700000000000355E+00    2.9550000000000134E+00    2.7172000000000121E+01
             8.6700000000000355E+00    5.9110000000000262E+00    2.7172000000000121E+01
             1.1626000000000053E+01    0.0000000000000000E+00    2.7172000000000121E+01
             1.1626000000000053E+01    2.9550000000000134E+00    2.7172000000000121E+01
             1.1626000000000053E+01    5.9110000000000262E+00    2.7172000000000121E+01
             1.4780000000000064E+00    1.4780000000000064E+00    2.9262000000000128E+01
             1.4780000000000064E+00    4.4330000000000203E+00    2.9262000000000128E+01
             1.4780000000000064E+00    7.3890000000000322E+00    2.9262000000000128E+01
             4.4340000000000179E+00    1.4780000000000064E+00    2.9262000000000128E+01
             4.4340000000000179E+00    4.4330000000000203E+00    2.9262000000000128E+01
             4.4340000000000179E+00    7.3890000000000322E+00    2.9262000000000128E+01
             7.1920000000000330E+00    1.4780000000000064E+00    2.9262000000000128E+01
             7.1920000000000330E+00    4.4330000000000203E+00    2.9262000000000128E+01
             7.1920000000000330E+00    7.3890000000000322E+00    2.9262000000000128E+01
             1.0148000000000042E+01    1.4780000000000064E+00    2.9262000000000128E+01
             1.0148000000000042E+01    4.4330000000000203E+00    2.9262000000000128E+01
             1.0148000000000042E+01    7.3890000000000322E+00    2.9262000000000128E+01
             1.3104000000000054E+01    1.4780000000000064E+00    2.9262000000000128E+01
             1.3104000000000054E+01    4.4330000000000203E+00    2.9262000000000128E+01
             1.3104000000000054E+01    7.3890000000000322E+00    2.9262000000000128E+01
             0.0000000000000000E+00    0.0000000000000000E+00    3.1352000000000139E+01
             0.0000000000000000E+00    2.9550000000000134E+00    3.1352000000000139E+01
             0.0000000000000000E+00    5.9110000000000262E+00    3.1352000000000139E+01
             2.9560000000000128E+00    0.0000000000000000E+00    3.1352000000000139E+01
             2.9560000000000128E+00    2.9550000000000134E+00    3.1352000000000139E+01
             2.9560000000000128E+00    5.9110000000000262E+00    3.1352000000000139E+01
             5.9120000000000257E+00    0.0000000000000000E+00    3.1352000000000139E+01
             5.9120000000000257E+00    2.9550000000000134E+00    3.1352000000000139E+01
             5.9120000000000257E+00    5.9110000000000262E+00    3.1352000000000139E+01
             8.6700000000000355E+00    0.0000000000000000E+00    3.1352000000000139E+01
             8.6700000000000355E+00    2.9550000000000134E+00    3.1352000000000139E+01
             8.6700000000000355E+00    5.9110000000000262E+00    3.1352000000000139E+01
             1.1626000000000053E+01    0.0000000000000000E+00    3.1352000000000139E+01
             1.1626000000000053E+01    2.9550000000000134E+00    3.1352000000000139E+01
             1.1626000000000053E+01    5.9110000000000262E+00    3.1352000000000139E+01
             1.4780000000000064E+00    1.4780000000000064E+00    3.3442000000000156E+01
             1.4780000000000064E+00    4.4330000000000203E+00    3.3442000000000156E+01
             1.4780000000000064E+00    7.3890000000000322E+00    3.3442000000000156E+01
             4.4340000000000179E+00    1.4780000000000064E+00    3.3442000000000156E+01
             4.4340000000000179E+00    4.4330000000000203E+00    3.3442000000000156E+01
             4.4340000000000179E+00    7.3890000000000322E+00    3.3442000000000156E+01
             7.1920000000000330E+00    1.4780000000000064E+00    3.3442000000000156E+01
             7.1920000000000330E+00    4.4330000000000203E+00    3.3442000000000156E+01
             7.1920000000000330E+00    7.3890000000000322E+00    3.3442000000000156E+01
             1.0148000000000042E+01    1.4780000000000064E+00    3.3442000000000156E+01
             1.0148000000000042E+01    4.4330000000000203E+00    3.3442000000000156E+01
             1.0148000000000042E+01    7.3890000000000322E+00    3.3442000000000156E+01
             1.3104000000000054E+01    1.4780000000000064E+00    3.3442000000000156E+01
             1.3104000000000054E+01    4.4330000000000203E+00    3.3442000000000156E+01
             1.3104000000000054E+01    7.3890000000000322E+00    3.3442000000000156E+01
       &END COORD
       &VELOCITY
             0.0000000000000000E+00    0.0000000000000000E+00    0.0000000000000000E+00
             0.0000000000000000E+00    0.0000000000000000E+00    0.0000000000000000E+00
             0.0000000000000000E+00    0.0000000000000000E+00    0.0000000000000000E+00
             0.0000000000000000E+00    0.0000000000000000E+00    0.0000000000000000E+00
             0.0000000000000000E+00    0.0000000000000000E+00    0.0000000000000000E+00
             0.0000000000000000E+00    0.0000000000000000E+00    0.0000000000000000E+00
             0.0000000000000000E+00    0.0000000000000000E+00    0.0000000000000000E+00
             0.0000000000000000E+00    0.0000000000000000E+00    0.0000000000000000E+00
             0.0000000000000000E+00    0.0000000000000000E+00    0.0000000000000000E+00
             0.0000000000000000E+00    0.0000000000000000E+00    0.0000000000000000E+00
             0.0000000000000000E+00    0.0000000000000000E+00    0.0000000000000000E+00
             0.0000000000000000E+00    0.0000000000000000E+00    0.0000000000000000E+00
             0.0000000000000000E+00    0.0000000000000000E+00    0.0000000000000000E+00
             0.0000000000000000E+00    0.0000000000000000E+00    0.0000000000000000E+00
             0.0000000000000000E+00    0.0000000000000000E+00    0.0000000000000000E+00
             0.0000000000000000E+00    0.0000000000000000E+00    0.0000000000000000E+00
             0.0000000000000000E+00    0.0000000000000000E+00    0.0000000000000000E+00
             0.0000000000000000E+00    0.0000000000000000E+00    0.0000000000000000E+00
             0.0000000000000000E+00    0.0000000000000000E+00    0.0000000000000000E+00
             0.0000000000000000E+00    0.0000000000000000E+00    0.0000000000000000E+00
             0.0000000000000000E+00    0.0000000000000000E+00    0.0000000000000000E+00
             0.0000000000000000E+00    0.0000000000000000E+00    0.0000000000000000E+00
             0.0000000000000000E+00    0.0000000000000000E+00    0.0000000000000000E+00
             0.0000000000000000E+00    0.0000000000000000E+00    0.0000000000000000E+00
             0.0000000000000000E+00    0.0000000000000000E+00    0.0000000000000000E+00
             0.0000000000000000E+00    0.0000000000000000E+00    0.0000000000000000E+00
             0.0000000000000000E+00    0.0000000000000000E+00    0.0000000000000000E+00
             0.0000000000000000E+00    0.0000000000000000E+00    0.0000000000000000E+00
             0.0000000000000000E+00    0.0000000000000000E+00    0.0000000000000000E+00
             0.0000000000000000E+00    0.0000000000000000E+00    0.0000000000000000E+00
             0.0000000000000000E+00    0.0000000000000000E+00    0.0000000000000000E+00
             0.0000000000000000E+00    0.0000000000000000E+00    0.0000000000000000E+00
             0.0000000000000000E+00    0.0000000000000000E+00    0.0000000000000000E+00
             0.0000000000000000E+00    0.0000000000000000E+00    0.0000000000000000E+00
             0.0000000000000000E+00    0.0000000000000000E+00    0.0000000000000000E+00
             0.0000000000000000E+00    0.0000000000000000E+00    0.0000000000000000E+00
             0.0000000000000000E+00    0.0000000000000000E+00    0.0000000000000000E+00
             0.0000000000000000E+00    0.0000000000000000E+00    0.0000000000000000E+00
             0.0000000000000000E+00    0.0000000000000000E+00    0.0000000000000000E+00
             0.0000000000000000E+00    0.0000000000000000E+00    0.0000000000000000E+00
             0.0000000000000000E+00    0.0000000000000000E+00    0.0000000000000000E+00
             0.0000000000000000E+00    0.0000000000000000E+00    0.0000000000000000E+00
             0.0000000000000000E+00    0.0000000000000000E+00    0.0000000000000000E+00
             0.0000000000000000E+00    0.0000000000000000E+00    0.0000000000000000E+00
             0.0000000000000000E+00    0.0000000000000000E+00    0.0000000000000000E+00
             0.0000000000000000E+00    0.0000000000000000E+00    0.0000000000000000E+00
             0.0000000000000000E+00    0.0000000000000000E+00    0.0000000000000000E+00
             0.0000000000000000E+00    0.0000000000000000E+00    0.0000000000000000E+00
             0.0000000000000000E+00    0.0000000000000000E+00    0.0000000000000000E+00
             0.0000000000000000E+00    0.0000000000000000E+00    0.0000000000000000E+00
             0.0000000000000000E+00    0.0000000000000000E+00    0.0000000000000000E+00
             0.0000000000000000E+00    0.0000000000000000E+00    0.0000000000000000E+00
             0.0000000000000000E+00    0.0000000000000000E+00    0.0000000000000000E+00
             0.0000000000000000E+00    0.0000000000000000E+00    0.0000000000000000E+00
             0.0000000000000000E+00    0.0000000000000000E+00    0.0000000000000000E+00
             0.0000000000000000E+00    0.0000000000000000E+00    0.0000000000000000E+00
             0.0000000000000000E+00    0.0000000000000000E+00    0.0000000000000000E+00
             0.0000000000000000E+00    0.0000000000000000E+00    0.0000000000000000E+00
             0.0000000000000000E+00    0.0000000000000000E+00    0.0000000000000000E+00
             0.0000000000000000E+00    0.0000000000000000E+00    0.0000000000000000E+00
             0.0000000000000000E+00    0.0000000000000000E+00    0.0000000000000000E+00
             0.0000000000000000E+00    0.0000000000000000E+00    0.0000000000000000E+00
             0.0000000000000000E+00    0.0000000000000000E+00    0.0000000000000000E+00
             0.0000000000000000E+00    0.0000000000000000E+00    0.0000000000000000E+00
             0.0000000000000000E+00    0.0000000000000000E+00    0.0000000000000000E+00
             0.0000000000000000E+00    0.0000000000000000E+00    0.0000000000000000E+00
             0.0000000000000000E+00    0.0000000000000000E+00    0.0000000000000000E+00
             0.0000000000000000E+00    0.0000000000000000E+00    0.0000000000000000E+00
             0.0000000000000000E+00    0.0000000000000000E+00    0.0000000000000000E+00
             0.0000000000000000E+00    0.0000000000000000E+00    0.0000000000000000E+00
             0.0000000000000000E+00    0.0000000000000000E+00    0.0000000000000000E+00
             0.0000000000000000E+00    0.0000000000000000E+00    0.0000000000000000E+00
             0.0000000000000000E+00    0.0000000000000000E+00    0.0000000000000000E+00
             0.0000000000000000E+00    0.0000000000000000E+00    0.0000000000000000E+00
             0.0000000000000000E+00    0.0000000000000000E+00    0.0000000000000000E+00
             0.0000000000000000E+00    0.0000000000000000E+00    0.0000000000000000E+00
             0.0000000000000000E+00    0.0000000000000000E+00    0.0000000000000000E+00
             0.0000000000000000E+00    0.0000000000000000E+00    0.0000000000000000E+00
             0.0000000000000000E+00    0.0000000000000000E+00    0.0000000000000000E+00
             0.0000000000000000E+00    0.0000000000000000E+00    0.0000000000000000E+00
             0.0000000000000000E+00    0.0000000000000000E+00    0.0000000000000000E+00
             0.0000000000000000E+00    0.0000000000000000E+00    0.0000000000000000E+00
             0.0000000000000000E+00    0.0000000000000000E+00    0.0000000000000000E+00
             0.0000000000000000E+00    0.0000000000000000E+00    0.0000000000000000E+00
             0.0000000000000000E+00    0.0000000000000000E+00    0.0000000000000000E+00
             0.0000000000000000E+00    0.0000000000000000E+00    0.0000000000000000E+00
             0.0000000000000000E+00    0.0000000000000000E+00    0.0000000000000000E+00
             0.0000000000000000E+00    0.0000000000000000E+00    0.0000000000000000E+00
             0.0000000000000000E+00    0.0000000000000000E+00    0.0000000000000000E+00
             0.0000000000000000E+00    0.0000000000000000E+00    0.0000000000000000E+00
             0.0000000000000000E+00    0.0000000000000000E+00    0.0000000000000000E+00
             0.0000000000000000E+00    0.0000000000000000E+00    0.0000000000000000E+00
             0.0000000000000000E+00    0.0000000000000000E+00    0.0000000000000000E+00
             0.0000000000000000E+00    0.0000000000000000E+00    0.0000000000000000E+00
             0.0000000000000000E+00    0.0000000000000000E+00    0.0000000000000000E+00
             0.0000000000000000E+00    0.0000000000000000E+00    0.0000000000000000E+00
             0.0000000000000000E+00    0.0000000000000000E+00    0.0000000000000000E+00
             0.0000000000000000E+00    0.0000000000000000E+00    0.0000000000000000E+00
             0.0000000000000000E+00    0.0000000000000000E+00    0.0000000000000000E+00
             0.0000000000000000E+00    0.0000000000000000E+00    0.0000000000000000E+00
             0.0000000000000000E+00    0.0000000000000000E+00    0.0000000000000000E+00
             0.0000000000000000E+00    0.0000000000000000E+00    0.0000000000000000E+00
             0.0000000000000000E+00    0.0000000000000000E+00    0.0000000000000000E+00
             0.0000000000000000E+00    0.0000000000000000E+00    0.0000000000000000E+00
             0.0000000000000000E+00    0.0000000000000000E+00    0.0000000000000000E+00
             0.0000000000000000E+00    0.0000000000000000E+00    0.0000000000000000E+00
             0.0000000000000000E+00    0.0000000000000000E+00    0.0000000000000000E+00
             0.0000000000000000E+00    0.0000000000000000E+00    0.0000000000000000E+00
             0.0000000000000000E+00    0.0000000000000000E+00    0.0000000000000000E+00
             0.0000000000000000E+00    0.0000000000000000E+00    0.0000000000000000E+00
             0.0000000000000000E+00    0.0000000000000000E+00    0.0000000000000000E+00
             0.0000000000000000E+00    0.0000000000000000E+00    0.0000000000000000E+00
             0.0000000000000000E+00    0.0000000000000000E+00    0.0000000000000000E+00
             0.0000000000000000E+00    0.0000000000000000E+00    0.0000000000000000E+00
             0.0000000000000000E+00    0.0000000000000000E+00    0.0000000000000000E+00
             0.0000000000000000E+00    0.0000000000000000E+00    0.0000000000000000E+00
             0.0000000000000000E+00    0.0000000000000000E+00    0.0000000000000000E+00
             0.0000000000000000E+00    0.0000000000000000E+00    0.0000000000000000E+00
             0.0000000000000000E+00    0.0000000000000000E+00    0.0000000000000000E+00
             0.0000000000000000E+00    0.0000000000000000E+00    0.0000000000000000E+00
             0.0000000000000000E+00    0.0000000000000000E+00    0.0000000000000000E+00
             0.0000000000000000E+00    0.0000000000000000E+00    0.0000000000000000E+00
             0.0000000000000000E+00    0.0000000000000000E+00    0.0000000000000000E+00
             0.0000000000000000E+00    0.0000000000000000E+00    0.0000000000000000E+00
             0.0000000000000000E+00    0.0000000000000000E+00    0.0000000000000000E+00
             0.0000000000000000E+00    0.0000000000000000E+00    0.0000000000000000E+00
             0.0000000000000000E+00    0.0000000000000000E+00    0.0000000000000000E+00
             0.0000000000000000E+00    0.0000000000000000E+00    0.0000000000000000E+00
             0.0000000000000000E+00    0.0000000000000000E+00    0.0000000000000000E+00
             0.0000000000000000E+00    0.0000000000000000E+00    0.0000000000000000E+00
             0.0000000000000000E+00    0.0000000000000000E+00    0.0000000000000000E+00
             0.0000000000000000E+00    0.0000000000000000E+00    0.0000000000000000E+00
             0.0000000000000000E+00    0.0000000000000000E+00    0.0000000000000000E+00
             0.0000000000000000E+00    0.0000000000000000E+00    0.0000000000000000E+00
             0.0000000000000000E+00    0.0000000000000000E+00    0.0000000000000000E+00
             0.0000000000000000E+00    0.0000000000000000E+00    0.0000000000000000E+00
             0.0000000000000000E+00    0.0000000000000000E+00    0.0000000000000000E+00
             0.0000000000000000E+00    0.0000000000000000E+00    0.0000000000000000E+00
             0.0000000000000000E+00    0.0000000000000000E+00    0.0000000000000000E+00
             0.0000000000000000E+00    0.0000000000000000E+00    0.0000000000000000E+00
             0.0000000000000000E+00    0.0000000000000000E+00    0.0000000000000000E+00
             0.0000000000000000E+00    0.0000000000000000E+00    0.0000000000000000E+00
             0.0000000000000000E+00    0.0000000000000000E+00    0.0000000000000000E+00
             0.0000000000000000E+00    0.0000000000000000E+00    0.0000000000000000E+00
             0.0000000000000000E+00    0.0000000000000000E+00    0.0000000000000000E+00