 # Version information for this restart file 
 # current date 2024-01-12 22:14:27.021
 # current working dir /gpfs/home/cahart/transport/melamine/au_from-h2/ci-neb/ts1/dft_leads-sz_tip-dzvp_surf-dzvp_kpoints-2-4-20_replicas-5
 # Program compiled at                              Thu 21 Sep 19:20:17 BST 2023
 # Program compiled on                                           hx1-c12-login-1
 # Program compiled for                                                    local
 # Source code revision number                                       git:5518aa6
 &GLOBAL
   EXTENDED_FFT_LENGTHS  T
   PRINT_LEVEL  MEDIUM
   PROJECT_NAME 2_dft_wfn-r-0
   OUTPUT_FILE_NAME 2_dft_wfn-r-0.out
   RUN_TYPE  BAND
 &END GLOBAL
 &MOTION
   &BAND
     NPROC_REP  64
     BAND_TYPE  CI-NEB
     NUMBER_OF_REPLICA  5
     K_SPRING     5.0000000000000003E-02
     &CI_NEB
       NSTEPS_IT  5
     &END CI_NEB
     &OPTIMIZE_BAND
       OPT_TYPE  DIIS
       &DIIS
         MAX_STEPS  1000
       &END DIIS
     &END OPTIMIZE_BAND
     &REPLICA
       &COORD
             0.0000000000000000E+00    0.0000000000000000E+00    0.0000000000000000E+00
             0.0000000000000000E+00    2.9550000000000263E+00    0.0000000000000000E+00
             0.0000000000000000E+00    5.9110000000000529E+00    0.0000000000000000E+00
             2.9560000000000271E+00    0.0000000000000000E+00    0.0000000000000000E+00
             2.9560000000000271E+00    2.9550000000000263E+00    0.0000000000000000E+00
             2.9560000000000271E+00    5.9110000000000529E+00    0.0000000000000000E+00
             5.9120000000000541E+00    0.0000000000000000E+00    0.0000000000000000E+00
             5.9120000000000541E+00    2.9550000000000263E+00    0.0000000000000000E+00
             5.9120000000000541E+00    5.9110000000000529E+00    0.0000000000000000E+00
             8.6700000000000870E+00    0.0000000000000000E+00    0.0000000000000000E+00
             8.6700000000000870E+00    2.9550000000000263E+00    0.0000000000000000E+00
             8.6700000000000870E+00    5.9110000000000529E+00    0.0000000000000000E+00
             1.1626000000000110E+01    0.0000000000000000E+00    0.0000000000000000E+00
             1.1626000000000110E+01    2.9550000000000263E+00    0.0000000000000000E+00
             1.1626000000000110E+01    5.9110000000000529E+00    0.0000000000000000E+00
             1.4780000000000135E+00    1.4780000000000135E+00    2.0900000000000190E+00
             1.4780000000000135E+00    4.4330000000000442E+00    2.0900000000000190E+00
             1.4780000000000135E+00    7.3890000000000740E+00    2.0900000000000190E+00
             4.4340000000000401E+00    1.4780000000000135E+00    2.0900000000000190E+00
             4.4340000000000401E+00    4.4330000000000442E+00    2.0900000000000190E+00
             4.4340000000000401E+00    7.3890000000000740E+00    2.0900000000000190E+00
             7.1920000000000677E+00    1.4780000000000135E+00    2.0900000000000190E+00
             7.1920000000000677E+00    4.4330000000000442E+00    2.0900000000000190E+00
             7.1920000000000677E+00    7.3890000000000740E+00    2.0900000000000190E+00
             1.0148000000000094E+01    1.4780000000000135E+00    2.0900000000000190E+00
             1.0148000000000094E+01    4.4330000000000442E+00    2.0900000000000190E+00
             1.0148000000000094E+01    7.3890000000000740E+00    2.0900000000000190E+00
             1.3104000000000118E+01    1.4780000000000135E+00    2.0900000000000190E+00
             1.3104000000000118E+01    4.4330000000000442E+00    2.0900000000000190E+00
             1.3104000000000118E+01    7.3890000000000740E+00    2.0900000000000190E+00
             0.0000000000000000E+00    0.0000000000000000E+00    4.1800000000000379E+00
             0.0000000000000000E+00    2.9550000000000263E+00    4.1800000000000379E+00
             0.0000000000000000E+00    5.9110000000000529E+00    4.1800000000000379E+00
             2.9560000000000271E+00    0.0000000000000000E+00    4.1800000000000379E+00
             2.9560000000000271E+00    2.9550000000000263E+00    4.1800000000000379E+00
             2.9560000000000271E+00    5.9110000000000529E+00    4.1800000000000379E+00
             5.9120000000000541E+00    0.0000000000000000E+00    4.1800000000000379E+00
             5.9120000000000541E+00    2.9550000000000263E+00    4.1800000000000379E+00
             5.9120000000000541E+00    5.9110000000000529E+00    4.1800000000000379E+00
             8.6700000000000870E+00    0.0000000000000000E+00    4.1800000000000379E+00
             8.6700000000000870E+00    2.9550000000000263E+00    4.1800000000000379E+00
             8.6700000000000870E+00    5.9110000000000529E+00    4.1800000000000379E+00
             1.1626000000000110E+01    0.0000000000000000E+00    4.1800000000000379E+00
             1.1626000000000110E+01    2.9550000000000263E+00    4.1800000000000379E+00
             1.1626000000000110E+01    5.9110000000000529E+00    4.1800000000000379E+00
             1.4780000000000135E+00    1.4780000000000135E+00    6.2700000000000564E+00
             1.4780000000000135E+00    4.4330000000000442E+00    6.2700000000000564E+00
             1.4780000000000135E+00    7.3890000000000740E+00    6.2700000000000564E+00
             4.4340000000000401E+00    1.4780000000000135E+00    6.2700000000000564E+00
             4.4340000000000401E+00    4.4330000000000442E+00    6.2700000000000564E+00
             4.4340000000000401E+00    7.3890000000000740E+00    6.2700000000000564E+00
             7.1920000000000677E+00    1.4780000000000135E+00    6.2700000000000564E+00
             7.1920000000000677E+00    4.4330000000000442E+00    6.2700000000000564E+00
             7.1920000000000677E+00    7.3890000000000740E+00    6.2700000000000564E+00
             1.0148000000000094E+01    1.4780000000000135E+00    6.2700000000000564E+00
             1.0148000000000094E+01    4.4330000000000442E+00    6.2700000000000564E+00
             1.0148000000000094E+01    7.3890000000000740E+00    6.2700000000000564E+00
             1.3104000000000118E+01    1.4780000000000135E+00    6.2700000000000564E+00
             1.3104000000000118E+01    4.4330000000000442E+00    6.2700000000000564E+00
             1.3104000000000118E+01    7.3890000000000740E+00    6.2700000000000564E+00
             0.0000000000000000E+00    0.0000000000000000E+00    8.3600000000000758E+00
             0.0000000000000000E+00    2.9550000000000263E+00    8.3600000000000758E+00
             0.0000000000000000E+00    5.9110000000000529E+00    8.3600000000000758E+00
             2.9560000000000271E+00    0.0000000000000000E+00    8.3600000000000758E+00
             2.9560000000000271E+00    2.9550000000000263E+00    8.3600000000000758E+00
             2.9560000000000271E+00    5.9110000000000529E+00    8.3600000000000758E+00
             5.9120000000000541E+00    0.0000000000000000E+00    8.3600000000000758E+00
             5.9120000000000541E+00    2.9550000000000263E+00    8.3600000000000758E+00
             5.9120000000000541E+00    5.9110000000000529E+00    8.3600000000000758E+00
             8.6700000000000870E+00    0.0000000000000000E+00    8.3600000000000758E+00
             8.6700000000000870E+00    2.9550000000000263E+00    8.3600000000000758E+00
             8.6700000000000870E+00    5.9110000000000529E+00    8.3600000000000758E+00
             1.1626000000000110E+01    0.0000000000000000E+00    8.3600000000000758E+00
             1.1626000000000110E+01    2.9550000000000263E+00    8.3600000000000758E+00
             1.1626000000000110E+01    5.9110000000000529E+00    8.3600000000000758E+00
             1.4780000000000135E+00    1.4780000000000135E+00    1.0450000000000097E+01
             1.4780000000000135E+00    4.4330000000000442E+00    1.0450000000000097E+01
             1.4780000000000135E+00    7.3890000000000740E+00    1.0450000000000097E+01
             4.4340000000000401E+00    1.4780000000000135E+00    1.0450000000000097E+01
             4.4340000000000401E+00    4.4330000000000442E+00    1.0450000000000097E+01
             4.4340000000000401E+00    7.3890000000000740E+00    1.0450000000000097E+01
             7.1920000000000677E+00    1.4780000000000135E+00    1.0450000000000097E+01
             7.1920000000000677E+00    4.4330000000000442E+00    1.0450000000000097E+01
             7.1920000000000677E+00    7.3890000000000740E+00    1.0450000000000097E+01
             1.0148000000000094E+01    1.4780000000000135E+00    1.0450000000000097E+01
             1.0148000000000094E+01    4.4330000000000442E+00    1.0450000000000097E+01
             1.0148000000000094E+01    7.3890000000000740E+00    1.0450000000000097E+01
             1.3104000000000118E+01    1.4780000000000135E+00    1.0450000000000097E+01
             1.3104000000000118E+01    4.4330000000000442E+00    1.0450000000000097E+01
             1.3104000000000118E+01    7.3890000000000740E+00    1.0450000000000097E+01
             4.8554000000000519E+00    5.9119000000000579E+00    1.2031800000000112E+01
             9.5280000000000928E+00    5.9137000000000519E+00    1.2034000000000121E+01
             7.1920000000000677E+00    5.9340000000000588E+00    1.2040000000000111E+01
             4.0750319168000377E+00    5.9049488170000535E+00    1.2696844061800112E+01
             1.0293988349500090E+01    5.9062142779000526E+00    1.2716532694500128E+01
             6.0099999686000629E+00    5.9120523853000577E+00    1.2765819797400120E+01
             8.3750478948000797E+00    5.9129627335000539E+00    1.2760746495900117E+01
             8.4047327065000825E+00    5.8893877816000550E+00    1.4094060897200121E+01
             5.9788500869000574E+00    5.8882515165000520E+00    1.4094239568500136E+01
             7.1943473363000665E+00    5.8799164377000519E+00    1.4701118490300141E+01
             7.1912293097000681E+00    5.8521058221000564E+00    1.6050622658200165E+01
             6.3086348447000606E+00    5.8615539361000577E+00    1.6548439365000167E+01
             8.0709262665000772E+00    5.8621389354000533E+00    1.6553588809700152E+01
             7.3120000000000642E+00    5.9340000000000588E+00    2.1043000000000188E+01
             5.8130000000000548E+00    7.4340000000000721E+00    2.2992000000000232E+01
             8.8130000000000770E+00    4.4340000000000401E+00    2.2992000000000232E+01
             5.8130000000000548E+00    4.4330000000000442E+00    2.2992000000000232E+01
             8.8130000000000770E+00    7.4340000000000721E+00    2.2992000000000232E+01
             1.4780000000000135E+00    1.4780000000000135E+00    2.5082000000000203E+01
             1.4780000000000135E+00    4.4330000000000442E+00    2.5082000000000203E+01
             1.4780000000000135E+00    7.3890000000000740E+00    2.5082000000000203E+01
             4.4340000000000401E+00    1.4780000000000135E+00    2.5082000000000203E+01
             4.4340000000000401E+00    4.4330000000000442E+00    2.5082000000000203E+01
             4.4340000000000401E+00    7.3890000000000740E+00    2.5082000000000203E+01
             7.1920000000000677E+00    1.4780000000000135E+00    2.5082000000000203E+01
             7.1920000000000677E+00    4.4330000000000442E+00    2.5082000000000203E+01
             7.1920000000000677E+00    7.3890000000000740E+00    2.5082000000000203E+01
             1.0148000000000094E+01    1.4780000000000135E+00    2.5082000000000203E+01
             1.0148000000000094E+01    4.4330000000000442E+00    2.5082000000000203E+01
             1.0148000000000094E+01    7.3890000000000740E+00    2.5082000000000203E+01
             1.3104000000000118E+01    1.4780000000000135E+00    2.5082000000000203E+01
             1.3104000000000118E+01    4.4330000000000442E+00    2.5082000000000203E+01
             1.3104000000000118E+01    7.3890000000000740E+00    2.5082000000000203E+01
             0.0000000000000000E+00    0.0000000000000000E+00    2.7172000000000246E+01
             0.0000000000000000E+00    2.9550000000000263E+00    2.7172000000000246E+01
             0.0000000000000000E+00    5.9110000000000529E+00    2.7172000000000246E+01
             2.9560000000000271E+00    0.0000000000000000E+00    2.7172000000000246E+01
             2.9560000000000271E+00    2.9550000000000263E+00    2.7172000000000246E+01
             2.9560000000000271E+00    5.9110000000000529E+00    2.7172000000000246E+01
             5.9120000000000541E+00    0.0000000000000000E+00    2.7172000000000246E+01
             5.9120000000000541E+00    2.9550000000000263E+00    2.7172000000000246E+01
             5.9120000000000541E+00    5.9110000000000529E+00    2.7172000000000246E+01
             8.6700000000000870E+00    0.0000000000000000E+00    2.7172000000000246E+01
             8.6700000000000870E+00    2.9550000000000263E+00    2.7172000000000246E+01
             8.6700000000000870E+00    5.9110000000000529E+00    2.7172000000000246E+01
             1.1626000000000110E+01    0.0000000000000000E+00    2.7172000000000246E+01
             1.1626000000000110E+01    2.9550000000000263E+00    2.7172000000000246E+01
             1.1626000000000110E+01    5.9110000000000529E+00    2.7172000000000246E+01
             1.4780000000000135E+00    1.4780000000000135E+00    2.9262000000000253E+01
             1.4780000000000135E+00    4.4330000000000442E+00    2.9262000000000253E+01
             1.4780000000000135E+00    7.3890000000000740E+00    2.9262000000000253E+01
             4.4340000000000401E+00    1.4780000000000135E+00    2.9262000000000253E+01
             4.4340000000000401E+00    4.4330000000000442E+00    2.9262000000000253E+01
             4.4340000000000401E+00    7.3890000000000740E+00    2.9262000000000253E+01
             7.1920000000000677E+00    1.4780000000000135E+00    2.9262000000000253E+01
             7.1920000000000677E+00    4.4330000000000442E+00    2.9262000000000253E+01
             7.1920000000000677E+00    7.3890000000000740E+00    2.9262000000000253E+01
             1.0148000000000094E+01    1.4780000000000135E+00    2.9262000000000253E+01
             1.0148000000000094E+01    4.4330000000000442E+00    2.9262000000000253E+01
             1.0148000000000094E+01    7.3890000000000740E+00    2.9262000000000253E+01
             1.3104000000000118E+01    1.4780000000000135E+00    2.9262000000000253E+01
             1.3104000000000118E+01    4.4330000000000442E+00    2.9262000000000253E+01
             1.3104000000000118E+01    7.3890000000000740E+00    2.9262000000000253E+01
             0.0000000000000000E+00    0.0000000000000000E+00    3.1352000000000285E+01
             0.0000000000000000E+00    2.9550000000000263E+00    3.1352000000000285E+01
             0.0000000000000000E+00    5.9110000000000529E+00    3.1352000000000285E+01
             2.9560000000000271E+00    0.0000000000000000E+00    3.1352000000000285E+01
             2.9560000000000271E+00    2.9550000000000263E+00    3.1352000000000285E+01
             2.9560000000000271E+00    5.9110000000000529E+00    3.1352000000000285E+01
             5.9120000000000541E+00    0.0000000000000000E+00    3.1352000000000285E+01
             5.9120000000000541E+00    2.9550000000000263E+00    3.1352000000000285E+01
             5.9120000000000541E+00    5.9110000000000529E+00    3.1352000000000285E+01
             8.6700000000000870E+00    0.0000000000000000E+00    3.1352000000000285E+01
             8.6700000000000870E+00    2.9550000000000263E+00    3.1352000000000285E+01
             8.6700000000000870E+00    5.9110000000000529E+00    3.1352000000000285E+01
             1.1626000000000110E+01    0.0000000000000000E+00    3.1352000000000285E+01
             1.1626000000000110E+01    2.9550000000000263E+00    3.1352000000000285E+01
             1.1626000000000110E+01    5.9110000000000529E+00    3.1352000000000285E+01
             1.4780000000000135E+00    1.4780000000000135E+00    3.3442000000000320E+01
             1.4780000000000135E+00    4.4330000000000442E+00    3.3442000000000320E+01
             1.4780000000000135E+00    7.3890000000000740E+00    3.3442000000000320E+01
             4.4340000000000401E+00    1.4780000000000135E+00    3.3442000000000320E+01
             4.4340000000000401E+00    4.4330000000000442E+00    3.3442000000000320E+01
             4.4340000000000401E+00    7.3890000000000740E+00    3.3442000000000320E+01
             7.1920000000000677E+00    1.4780000000000135E+00    3.3442000000000320E+01
             7.1920000000000677E+00    4.4330000000000442E+00    3.3442000000000320E+01
             7.1920000000000677E+00    7.3890000000000740E+00    3.3442000000000320E+01
             1.0148000000000094E+01    1.4780000000000135E+00    3.3442000000000320E+01
             1.0148000000000094E+01    4.4330000000000442E+00    3.3442000000000320E+01
             1.0148000000000094E+01    7.3890000000000740E+00    3.3442000000000320E+01
             1.3104000000000118E+01    1.4780000000000135E+00    3.3442000000000320E+01
             1.3104000000000118E+01    4.4330000000000442E+00    3.3442000000000320E+01
             1.3104000000000118E+01    7.3890000000000740E+00    3.3442000000000320E+01
       &END COORD
       &VELOCITY
             0.0000000000000000E+00    0.0000000000000000E+00    0.0000000000000000E+00
             0.0000000000000000E+00    0.0000000000000000E+00    0.0000000000000000E+00
             0.0000000000000000E+00    0.0000000000000000E+00    0.0000000000000000E+00
             0.0000000000000000E+00    0.0000000000000000E+00    0.0000000000000000E+00
             0.0000000000000000E+00    0.0000000000000000E+00    0.0000000000000000E+00
             0.0000000000000000E+00    0.0000000000000000E+00    0.0000000000000000E+00
             0.0000000000000000E+00    0.0000000000000000E+00    0.0000000000000000E+00
             0.0000000000000000E+00    0.0000000000000000E+00    0.0000000000000000E+00
             0.0000000000000000E+00    0.0000000000000000E+00    0.0000000000000000E+00
             0.0000000000000000E+00    0.0000000000000000E+00    0.0000000000000000E+00
             0.0000000000000000E+00    0.0000000000000000E+00    0.0000000000000000E+00
             0.0000000000000000E+00    0.0000000000000000E+00    0.0000000000000000E+00
             0.0000000000000000E+00    0.0000000000000000E+00    0.0000000000000000E+00
             0.0000000000000000E+00    0.0000000000000000E+00    0.0000000000000000E+00
             0.0000000000000000E+00    0.0000000000000000E+00    0.0000000000000000E+00
             0.0000000000000000E+00    0.0000000000000000E+00    0.0000000000000000E+00
             0.0000000000000000E+00    0.0000000000000000E+00    0.0000000000000000E+00
             0.0000000000000000E+00    0.0000000000000000E+00    0.0000000000000000E+00
             0.0000000000000000E+00    0.0000000000000000E+00    0.0000000000000000E+00
             0.0000000000000000E+00    0.0000000000000000E+00    0.0000000000000000E+00
             0.0000000000000000E+00    0.0000000000000000E+00    0.0000000000000000E+00
             0.0000000000000000E+00    0.0000000000000000E+00    0.0000000000000000E+00
             0.0000000000000000E+00    0.0000000000000000E+00    0.0000000000000000E+00
             0.0000000000000000E+00    0.0000000000000000E+00    0.0000000000000000E+00
             0.0000000000000000E+00    0.0000000000000000E+00    0.0000000000000000E+00
             0.0000000000000000E+00    0.0000000000000000E+00    0.0000000000000000E+00
             0.0000000000000000E+00    0.0000000000000000E+00    0.0000000000000000E+00
             0.0000000000000000E+00    0.0000000000000000E+00    0.0000000000000000E+00
             0.0000000000000000E+00    0.0000000000000000E+00    0.0000000000000000E+00
             0.0000000000000000E+00    0.0000000000000000E+00    0.0000000000000000E+00
             0.0000000000000000E+00    0.0000000000000000E+00    0.0000000000000000E+00
             0.0000000000000000E+00    0.0000000000000000E+00    0.0000000000000000E+00
             0.0000000000000000E+00    0.0000000000000000E+00    0.0000000000000000E+00
             0.0000000000000000E+00    0.0000000000000000E+00    0.0000000000000000E+00
             0.0000000000000000E+00    0.0000000000000000E+00    0.0000000000000000E+00
             0.0000000000000000E+00    0.0000000000000000E+00    0.0000000000000000E+00
             0.0000000000000000E+00    0.0000000000000000E+00    0.0000000000000000E+00
             0.0000000000000000E+00    0.0000000000000000E+00    0.0000000000000000E+00
             0.0000000000000000E+00    0.0000000000000000E+00    0.0000000000000000E+00
             0.0000000000000000E+00    0.0000000000000000E+00    0.0000000000000000E+00
             0.0000000000000000E+00    0.0000000000000000E+00    0.0000000000000000E+00
             0.0000000000000000E+00    0.0000000000000000E+00    0.0000000000000000E+00
             0.0000000000000000E+00    0.0000000000000000E+00    0.0000000000000000E+00
             0.0000000000000000E+00    0.0000000000000000E+00    0.0000000000000000E+00
             0.0000000000000000E+00    0.0000000000000000E+00    0.0000000000000000E+00
             0.0000000000000000E+00    0.0000000000000000E+00    0.0000000000000000E+00
             0.0000000000000000E+00    0.0000000000000000E+00    0.0000000000000000E+00
             0.0000000000000000E+00    0.0000000000000000E+00    0.0000000000000000E+00
             0.0000000000000000E+00    0.0000000000000000E+00    0.0000000000000000E+00
             0.0000000000000000E+00    0.0000000000000000E+00    0.0000000000000000E+00
             0.0000000000000000E+00    0.0000000000000000E+00    0.0000000000000000E+00
             0.0000000000000000E+00    0.0000000000000000E+00    0.0000000000000000E+00
             0.0000000000000000E+00    0.0000000000000000E+00    0.0000000000000000E+00
             0.0000000000000000E+00    0.0000000000000000E+00    0.0000000000000000E+00
             0.0000000000000000E+00    0.0000000000000000E+00    0.0000000000000000E+00
             0.0000000000000000E+00    0.0000000000000000E+00    0.0000000000000000E+00
             0.0000000000000000E+00    0.0000000000000000E+00    0.0000000000000000E+00
             0.0000000000000000E+00    0.0000000000000000E+00    0.0000000000000000E+00
             0.0000000000000000E+00    0.0000000000000000E+00    0.0000000000000000E+00
             0.0000000000000000E+00    0.0000000000000000E+00    0.0000000000000000E+00
             0.0000000000000000E+00    0.0000000000000000E+00    0.0000000000000000E+00
             0.0000000000000000E+00    0.0000000000000000E+00    0.0000000000000000E+00
             0.0000000000000000E+00    0.0000000000000000E+00    0.0000000000000000E+00
             0.0000000000000000E+00    0.0000000000000000E+00    0.0000000000000000E+00
             0.0000000000000000E+00    0.0000000000000000E+00    0.0000000000000000E+00
             0.0000000000000000E+00    0.0000000000000000E+00    0.0000000000000000E+00
             0.0000000000000000E+00    0.0000000000000000E+00    0.0000000000000000E+00
             0.0000000000000000E+00    0.0000000000000000E+00    0.0000000000000000E+00
             0.0000000000000000E+00    0.0000000000000000E+00    0.0000000000000000E+00
             0.0000000000000000E+00    0.0000000000000000E+00    0.0000000000000000E+00
             0.0000000000000000E+00    0.0000000000000000E+00    0.0000000000000000E+00
             0.0000000000000000E+00    0.0000000000000000E+00    0.0000000000000000E+00
             0.0000000000000000E+00    0.0000000000000000E+00    0.0000000000000000E+00
             0.0000000000000000E+00    0.0000000000000000E+00    0.0000000000000000E+00
             0.0000000000000000E+00    0.0000000000000000E+00    0.0000000000000000E+00
             0.0000000000000000E+00    0.0000000000000000E+00    0.0000000000000000E+00
             0.0000000000000000E+00    0.0000000000000000E+00    0.0000000000000000E+00
             0.0000000000000000E+00    0.0000000000000000E+00    0.0000000000000000E+00
             0.0000000000000000E+00    0.0000000000000000E+00    0.0000000000000000E+00
             0.0000000000000000E+00    0.0000000000000000E+00    0.0000000000000000E+00
             0.0000000000000000E+00    0.0000000000000000E+00    0.0000000000000000E+00
             0.0000000000000000E+00    0.0000000000000000E+00    0.0000000000000000E+00
             0.0000000000000000E+00    0.0000000000000000E+00    0.0000000000000000E+00
             0.0000000000000000E+00    0.0000000000000000E+00    0.0000000000000000E+00
             0.0000000000000000E+00    0.0000000000000000E+00    0.0000000000000000E+00
             0.0000000000000000E+00    0.0000000000000000E+00    0.0000000000000000E+00
             0.0000000000000000E+00    0.0000000000000000E+00    0.0000000000000000E+00
             0.0000000000000000E+00    0.0000000000000000E+00    0.0000000000000000E+00
             0.0000000000000000E+00    0.0000000000000000E+00    0.0000000000000000E+00
             0.0000000000000000E+00    0.0000000000000000E+00    0.0000000000000000E+00
             0.0000000000000000E+00    0.0000000000000000E+00    0.0000000000000000E+00
             0.0000000000000000E+00    0.0000000000000000E+00    0.0000000000000000E+00
             0.0000000000000000E+00    0.0000000000000000E+00    0.0000000000000000E+00
             0.0000000000000000E+00    0.0000000000000000E+00    0.0000000000000000E+00
             0.0000000000000000E+00    0.0000000000000000E+00    0.0000000000000000E+00
             0.0000000000000000E+00    0.0000000000000000E+00    0.0000000000000000E+00
             0.0000000000000000E+00    0.0000000000000000E+00    0.0000000000000000E+00
             0.0000000000000000E+00    0.0000000000000000E+00    0.0000000000000000E+00
             0.0000000000000000E+00    0.0000000000000000E+00    0.0000000000000000E+00
             0.0000000000000000E+00    0.0000000000000000E+00    0.0000000000000000E+00
             0.0000000000000000E+00    0.0000000000000000E+00    0.0000000000000000E+00
             0.0000000000000000E+00    0.0000000000000000E+00    0.0000000000000000E+00
             0.0000000000000000E+00    0.0000000000000000E+00    0.0000000000000000E+00
             0.0000000000000000E+00    0.0000000000000000E+00    0.0000000000000000E+00
             0.0000000000000000E+00    0.0000000000000000E+00    0.0000000000000000E+00
             0.0000000000000000E+00    0.0000000000000000E+00    0.0000000000000000E+00
             0.0000000000000000E+00    0.0000000000000000E+00    0.0000000000000000E+00
             0.0000000000000000E+00    0.0000000000000000E+00    0.0000000000000000E+00
             0.0000000000000000E+00    0.0000000000000000E+00    0.0000000000000000E+00
             0.0000000000000000E+00    0.0000000000000000E+00    0.0000000000000000E+00
             0.0000000000000000E+00    0.0000000000000000E+00    0.0000000000000000E+00
             0.0000000000000000E+00    0.0000000000000000E+00    0.0000000000000000E+00
             0.0000000000000000E+00    0.0000000000000000E+00    0.0000000000000000E+00
             0.0000000000000000E+00    0.0000000000000000E+00    0.0000000000000000E+00
             0.0000000000000000E+00    0.0000000000000000E+00    0.0000000000000000E+00
             0.0000000000000000E+00    0.0000000000000000E+00    0.0000000000000000E+00
             0.0000000000000000E+00    0.0000000000000000E+00    0.0000000000000000E+00
             0.0000000000000000E+00    0.0000000000000000E+00    0.0000000000000000E+00
             0.0000000000000000E+00    0.0000000000000000E+00    0.0000000000000000E+00
             0.0000000000000000E+00    0.0000000000000000E+00    0.0000000000000000E+00
             0.0000000000000000E+00    0.0000000000000000E+00    0.0000000000000000E+00
             0.0000000000000000E+00    0.0000000000000000E+00    0.0000000000000000E+00
             0.0000000000000000E+00    0.0000000000000000E+00    0.0000000000000000E+00
             0.0000000000000000E+00    0.0000000000000000E+00    0.0000000000000000E+00
             0.0000000000000000E+00    0.0000000000000000E+00    0.0000000000000000E+00
             0.0000000000000000E+00    0.0000000000000000E+00    0.0000000000000000E+00
             0.0000000000000000E+00    0.0000000000000000E+00    0.0000000000000000E+00
             0.0000000000000000E+00    0.0000000000000000E+00    0.0000000000000000E+00
             0.0000000000000000E+00    0.0000000000000000E+00    0.0000000000000000E+00
             0.0000000000000000E+00    0.0000000000000000E+00    0.0000000000000000E+00
             0.0000000000000000E+00    0.0000000000000000E+00    0.0000000000000000E+00
             0.0000000000000000E+00    0.0000000000000000E+00    0.0000000000000000E+00
             0.0000000000000000E+00    0.0000000000000000E+00    0.0000000000000000E+00
             0.0000000000000000E+00    0.0000000000000000E+00    0.0000000000000000E+00
             0.0000000000000000E+00    0.0000000000000000E+00    0.0000000000000000E+00
             0.0000000000000000E+00    0.0000000000000000E+00    0.0000000000000000E+00
             0.0000000000000000E+00    0.0000000000000000E+00    0.0000000000000000E+00
             0.0000000000000000E+00    0.0000000000000000E+00    0.0000000000000000E+00
             0.0000000000000000E+00    0.0000000000000000E+00    0.0000000000000000E+00
             0.0000000000000000E+00    0.0000000000000000E+00    0.0000000000000000E+00
             0.0000000000000000E+00    0.0000000000000000E+00    0.0000000000000000E+00
             0.0000000000000000E+00    0.0000000000000000E+00    0.0000000000000000E+00
             0.0000000000000000E+00    0.0000000000000000E+00    0.0000000000000000E+00
             0.0000000000000000E+00    0.0000000000000000E+00    0.0000000000000000E+00
             0.0000000000000000E+00    0.0000000000000000E+00    0.0000000000000000E+00