 # Version information for this restart file 
 # current date 2024-01-12 17:34:22.717
 # current working dir /gpfs/home/cahart/transport/melamine/au_from-h2/ci-neb/ts1/dft_leads-sz_tip-dzvp_surf-dzvp_kpoints-2-4-20_replicas-5
 # Program compiled at                              Thu 21 Sep 19:20:17 BST 2023
 # Program compiled on                                           hx1-c12-login-1
 # Program compiled for                                                    local
 # Source code revision number                                       git:5518aa6
 &GLOBAL
   EXTENDED_FFT_LENGTHS  T
   PRINT_LEVEL  MEDIUM
   PROJECT_NAME 2_dft_wfn-r-0
   OUTPUT_FILE_NAME 2_dft_wfn-r-0.out
   RUN_TYPE  BAND
 &END GLOBAL
 &MOTION
   &BAND
     NPROC_REP  64
     BAND_TYPE  CI-NEB
     NUMBER_OF_REPLICA  5
     K_SPRING     5.0000000000000003E-02
     &CI_NEB
       NSTEPS_IT  5
     &END CI_NEB
     &OPTIMIZE_BAND
       OPT_TYPE  DIIS
       &DIIS
         MAX_STEPS  1000
       &END DIIS
     &END OPTIMIZE_BAND
     &REPLICA
       &COORD
             0.0000000000000000E+00    0.0000000000000000E+00    0.0000000000000000E+00
             0.0000000000000000E+00    2.9550000000000156E+00    0.0000000000000000E+00
             0.0000000000000000E+00    5.9110000000000333E+00    0.0000000000000000E+00
             2.9560000000000155E+00    0.0000000000000000E+00    0.0000000000000000E+00
             2.9560000000000155E+00    2.9550000000000156E+00    0.0000000000000000E+00
             2.9560000000000155E+00    5.9110000000000333E+00    0.0000000000000000E+00
             5.9120000000000310E+00    0.0000000000000000E+00    0.0000000000000000E+00
             5.9120000000000310E+00    2.9550000000000156E+00    0.0000000000000000E+00
             5.9120000000000310E+00    5.9110000000000333E+00    0.0000000000000000E+00
             8.6700000000000479E+00    0.0000000000000000E+00    0.0000000000000000E+00
             8.6700000000000479E+00    2.9550000000000156E+00    0.0000000000000000E+00
             8.6700000000000479E+00    5.9110000000000333E+00    0.0000000000000000E+00
             1.1626000000000065E+01    0.0000000000000000E+00    0.0000000000000000E+00
             1.1626000000000065E+01    2.9550000000000156E+00    0.0000000000000000E+00
             1.1626000000000065E+01    5.9110000000000333E+00    0.0000000000000000E+00
             1.4780000000000078E+00    1.4780000000000078E+00    2.0900000000000110E+00
             1.4780000000000078E+00    4.4330000000000238E+00    2.0900000000000110E+00
             1.4780000000000078E+00    7.3890000000000429E+00    2.0900000000000110E+00
             4.4340000000000224E+00    1.4780000000000078E+00    2.0900000000000110E+00
             4.4340000000000224E+00    4.4330000000000238E+00    2.0900000000000110E+00
             4.4340000000000224E+00    7.3890000000000429E+00    2.0900000000000110E+00
             7.1920000000000410E+00    1.4780000000000078E+00    2.0900000000000110E+00
             7.1920000000000410E+00    4.4330000000000238E+00    2.0900000000000110E+00
             7.1920000000000410E+00    7.3890000000000429E+00    2.0900000000000110E+00
             1.0148000000000053E+01    1.4780000000000078E+00    2.0900000000000110E+00
             1.0148000000000053E+01    4.4330000000000238E+00    2.0900000000000110E+00
             1.0148000000000053E+01    7.3890000000000429E+00    2.0900000000000110E+00
             1.3104000000000067E+01    1.4780000000000078E+00    2.0900000000000110E+00
             1.3104000000000067E+01    4.4330000000000238E+00    2.0900000000000110E+00
             1.3104000000000067E+01    7.3890000000000429E+00    2.0900000000000110E+00
             0.0000000000000000E+00    0.0000000000000000E+00    4.1800000000000219E+00
             0.0000000000000000E+00    2.9550000000000156E+00    4.1800000000000219E+00
             0.0000000000000000E+00    5.9110000000000333E+00    4.1800000000000219E+00
             2.9560000000000155E+00    0.0000000000000000E+00    4.1800000000000219E+00
             2.9560000000000155E+00    2.9550000000000156E+00    4.1800000000000219E+00
             2.9560000000000155E+00    5.9110000000000333E+00    4.1800000000000219E+00
             5.9120000000000310E+00    0.0000000000000000E+00    4.1800000000000219E+00
             5.9120000000000310E+00    2.9550000000000156E+00    4.1800000000000219E+00
             5.9120000000000310E+00    5.9110000000000333E+00    4.1800000000000219E+00
             8.6700000000000479E+00    0.0000000000000000E+00    4.1800000000000219E+00
             8.6700000000000479E+00    2.9550000000000156E+00    4.1800000000000219E+00
             8.6700000000000479E+00    5.9110000000000333E+00    4.1800000000000219E+00
             1.1626000000000065E+01    0.0000000000000000E+00    4.1800000000000219E+00
             1.1626000000000065E+01    2.9550000000000156E+00    4.1800000000000219E+00
             1.1626000000000065E+01    5.9110000000000333E+00    4.1800000000000219E+00
             1.4780000000000078E+00    1.4780000000000078E+00    6.2700000000000315E+00
             1.4780000000000078E+00    4.4330000000000238E+00    6.2700000000000315E+00
             1.4780000000000078E+00    7.3890000000000429E+00    6.2700000000000315E+00
             4.4340000000000224E+00    1.4780000000000078E+00    6.2700000000000315E+00
             4.4340000000000224E+00    4.4330000000000238E+00    6.2700000000000315E+00
             4.4340000000000224E+00    7.3890000000000429E+00    6.2700000000000315E+00
             7.1920000000000410E+00    1.4780000000000078E+00    6.2700000000000315E+00
             7.1920000000000410E+00    4.4330000000000238E+00    6.2700000000000315E+00
             7.1920000000000410E+00    7.3890000000000429E+00    6.2700000000000315E+00
             1.0148000000000053E+01    1.4780000000000078E+00    6.2700000000000315E+00
             1.0148000000000053E+01    4.4330000000000238E+00    6.2700000000000315E+00
             1.0148000000000053E+01    7.3890000000000429E+00    6.2700000000000315E+00
             1.3104000000000067E+01    1.4780000000000078E+00    6.2700000000000315E+00
             1.3104000000000067E+01    4.4330000000000238E+00    6.2700000000000315E+00
             1.3104000000000067E+01    7.3890000000000429E+00    6.2700000000000315E+00
             0.0000000000000000E+00    0.0000000000000000E+00    8.3600000000000438E+00
             0.0000000000000000E+00    2.9550000000000156E+00    8.3600000000000438E+00
             0.0000000000000000E+00    5.9110000000000333E+00    8.3600000000000438E+00
             2.9560000000000155E+00    0.0000000000000000E+00    8.3600000000000438E+00
             2.9560000000000155E+00    2.9550000000000156E+00    8.3600000000000438E+00
             2.9560000000000155E+00    5.9110000000000333E+00    8.3600000000000438E+00
             5.9120000000000310E+00    0.0000000000000000E+00    8.3600000000000438E+00
             5.9120000000000310E+00    2.9550000000000156E+00    8.3600000000000438E+00
             5.9120000000000310E+00    5.9110000000000333E+00    8.3600000000000438E+00
             8.6700000000000479E+00    0.0000000000000000E+00    8.3600000000000438E+00
             8.6700000000000479E+00    2.9550000000000156E+00    8.3600000000000438E+00
             8.6700000000000479E+00    5.9110000000000333E+00    8.3600000000000438E+00
             1.1626000000000065E+01    0.0000000000000000E+00    8.3600000000000438E+00
             1.1626000000000065E+01    2.9550000000000156E+00    8.3600000000000438E+00
             1.1626000000000065E+01    5.9110000000000333E+00    8.3600000000000438E+00
             1.4780000000000078E+00    1.4780000000000078E+00    1.0450000000000056E+01
             1.4780000000000078E+00    4.4330000000000238E+00    1.0450000000000056E+01
             1.4780000000000078E+00    7.3890000000000429E+00    1.0450000000000056E+01
             4.4340000000000224E+00    1.4780000000000078E+00    1.0450000000000056E+01
             4.4340000000000224E+00    4.4330000000000238E+00    1.0450000000000056E+01
             4.4340000000000224E+00    7.3890000000000429E+00    1.0450000000000056E+01
             7.1920000000000410E+00    1.4780000000000078E+00    1.0450000000000056E+01
             7.1920000000000410E+00    4.4330000000000238E+00    1.0450000000000056E+01
             7.1920000000000410E+00    7.3890000000000429E+00    1.0450000000000056E+01
             1.0148000000000053E+01    1.4780000000000078E+00    1.0450000000000056E+01
             1.0148000000000053E+01    4.4330000000000238E+00    1.0450000000000056E+01
             1.0148000000000053E+01    7.3890000000000429E+00    1.0450000000000056E+01
             1.3104000000000067E+01    1.4780000000000078E+00    1.0450000000000056E+01
             1.3104000000000067E+01    4.4330000000000238E+00    1.0450000000000056E+01
             1.3104000000000067E+01    7.3890000000000429E+00    1.0450000000000056E+01
             4.8554000000000270E+00    5.9119000000000330E+00    1.2031800000000059E+01
             9.5280000000000502E+00    5.9137000000000324E+00    1.2034000000000070E+01
             7.1920000000000410E+00    5.9340000000000339E+00    1.2040000000000061E+01
             4.0750319168000200E+00    5.9049488170000295E+00    1.2696844061800070E+01
             1.0293988349500047E+01    5.9062142779000304E+00    1.2716532694500069E+01
             6.0099999686000363E+00    5.9120523853000302E+00    1.2765819797400063E+01
             8.3750478948000389E+00    5.9129627335000272E+00    1.2760746495900065E+01
             8.4047327065000434E+00    5.8893877816000302E+00    1.4094060897200073E+01
             5.9788500869000334E+00    5.8882515165000298E+00    1.4094239568500072E+01
             7.1943473363000381E+00    5.8799164377000297E+00    1.4701118490300079E+01
             7.1912293097000388E+00    5.8521058221000315E+00    1.6050622658200087E+01
             6.3086348447000349E+00    5.8615539361000319E+00    1.6548439365000092E+01
             8.0709262665000452E+00    5.8621389354000293E+00    1.6553588809700084E+01
             7.3120000000000367E+00    5.9340000000000339E+00    2.1043000000000099E+01
             5.8130000000000326E+00    7.4340000000000401E+00    2.2992000000000122E+01
             8.8130000000000432E+00    4.4340000000000224E+00    2.2992000000000122E+01
             5.8130000000000326E+00    4.4330000000000238E+00    2.2992000000000122E+01
             8.8130000000000432E+00    7.4340000000000401E+00    2.2992000000000122E+01
             1.4780000000000078E+00    1.4780000000000078E+00    2.5082000000000125E+01
             1.4780000000000078E+00    4.4330000000000238E+00    2.5082000000000125E+01
             1.4780000000000078E+00    7.3890000000000429E+00    2.5082000000000125E+01
             4.4340000000000224E+00    1.4780000000000078E+00    2.5082000000000125E+01
             4.4340000000000224E+00    4.4330000000000238E+00    2.5082000000000125E+01
             4.4340000000000224E+00    7.3890000000000429E+00    2.5082000000000125E+01
             7.1920000000000410E+00    1.4780000000000078E+00    2.5082000000000125E+01
             7.1920000000000410E+00    4.4330000000000238E+00    2.5082000000000125E+01
             7.1920000000000410E+00    7.3890000000000429E+00    2.5082000000000125E+01
             1.0148000000000053E+01    1.4780000000000078E+00    2.5082000000000125E+01
             1.0148000000000053E+01    4.4330000000000238E+00    2.5082000000000125E+01
             1.0148000000000053E+01    7.3890000000000429E+00    2.5082000000000125E+01
             1.3104000000000067E+01    1.4780000000000078E+00    2.5082000000000125E+01
             1.3104000000000067E+01    4.4330000000000238E+00    2.5082000000000125E+01
             1.3104000000000067E+01    7.3890000000000429E+00    2.5082000000000125E+01
             0.0000000000000000E+00    0.0000000000000000E+00    2.7172000000000143E+01
             0.0000000000000000E+00    2.9550000000000156E+00    2.7172000000000143E+01
             0.0000000000000000E+00    5.9110000000000333E+00    2.7172000000000143E+01
             2.9560000000000155E+00    0.0000000000000000E+00    2.7172000000000143E+01
             2.9560000000000155E+00    2.9550000000000156E+00    2.7172000000000143E+01
             2.9560000000000155E+00    5.9110000000000333E+00    2.7172000000000143E+01
             5.9120000000000310E+00    0.0000000000000000E+00    2.7172000000000143E+01
             5.9120000000000310E+00    2.9550000000000156E+00    2.7172000000000143E+01
             5.9120000000000310E+00    5.9110000000000333E+00    2.7172000000000143E+01
             8.6700000000000479E+00    0.0000000000000000E+00    2.7172000000000143E+01
             8.6700000000000479E+00    2.9550000000000156E+00    2.7172000000000143E+01
             8.6700000000000479E+00    5.9110000000000333E+00    2.7172000000000143E+01
             1.1626000000000065E+01    0.0000000000000000E+00    2.7172000000000143E+01
             1.1626000000000065E+01    2.9550000000000156E+00    2.7172000000000143E+01
             1.1626000000000065E+01    5.9110000000000333E+00    2.7172000000000143E+01
             1.4780000000000078E+00    1.4780000000000078E+00    2.9262000000000150E+01
             1.4780000000000078E+00    4.4330000000000238E+00    2.9262000000000150E+01
             1.4780000000000078E+00    7.3890000000000429E+00    2.9262000000000150E+01
             4.4340000000000224E+00    1.4780000000000078E+00    2.9262000000000150E+01
             4.4340000000000224E+00    4.4330000000000238E+00    2.9262000000000150E+01
             4.4340000000000224E+00    7.3890000000000429E+00    2.9262000000000150E+01
             7.1920000000000410E+00    1.4780000000000078E+00    2.9262000000000150E+01
             7.1920000000000410E+00    4.4330000000000238E+00    2.9262000000000150E+01
             7.1920000000000410E+00    7.3890000000000429E+00    2.9262000000000150E+01
             1.0148000000000053E+01    1.4780000000000078E+00    2.9262000000000150E+01
             1.0148000000000053E+01    4.4330000000000238E+00    2.9262000000000150E+01
             1.0148000000000053E+01    7.3890000000000429E+00    2.9262000000000150E+01
             1.3104000000000067E+01    1.4780000000000078E+00    2.9262000000000150E+01
             1.3104000000000067E+01    4.4330000000000238E+00    2.9262000000000150E+01
             1.3104000000000067E+01    7.3890000000000429E+00    2.9262000000000150E+01
             0.0000000000000000E+00    0.0000000000000000E+00    3.1352000000000157E+01
             0.0000000000000000E+00    2.9550000000000156E+00    3.1352000000000157E+01
             0.0000000000000000E+00    5.9110000000000333E+00    3.1352000000000157E+01
             2.9560000000000155E+00    0.0000000000000000E+00    3.1352000000000157E+01
             2.9560000000000155E+00    2.9550000000000156E+00    3.1352000000000157E+01
             2.9560000000000155E+00    5.9110000000000333E+00    3.1352000000000157E+01
             5.9120000000000310E+00    0.0000000000000000E+00    3.1352000000000157E+01
             5.9120000000000310E+00    2.9550000000000156E+00    3.1352000000000157E+01
             5.9120000000000310E+00    5.9110000000000333E+00    3.1352000000000157E+01
             8.6700000000000479E+00    0.0000000000000000E+00    3.1352000000000157E+01
             8.6700000000000479E+00    2.9550000000000156E+00    3.1352000000000157E+01
             8.6700000000000479E+00    5.9110000000000333E+00    3.1352000000000157E+01
             1.1626000000000065E+01    0.0000000000000000E+00    3.1352000000000157E+01
             1.1626000000000065E+01    2.9550000000000156E+00    3.1352000000000157E+01
             1.1626000000000065E+01    5.9110000000000333E+00    3.1352000000000157E+01
             1.4780000000000078E+00    1.4780000000000078E+00    3.3442000000000185E+01
             1.4780000000000078E+00    4.4330000000000238E+00    3.3442000000000185E+01
             1.4780000000000078E+00    7.3890000000000429E+00    3.3442000000000185E+01
             4.4340000000000224E+00    1.4780000000000078E+00    3.3442000000000185E+01
             4.4340000000000224E+00    4.4330000000000238E+00    3.3442000000000185E+01
             4.4340000000000224E+00    7.3890000000000429E+00    3.3442000000000185E+01
             7.1920000000000410E+00    1.4780000000000078E+00    3.3442000000000185E+01
             7.1920000000000410E+00    4.4330000000000238E+00    3.3442000000000185E+01
             7.1920000000000410E+00    7.3890000000000429E+00    3.3442000000000185E+01
             1.0148000000000053E+01    1.4780000000000078E+00    3.3442000000000185E+01
             1.0148000000000053E+01    4.4330000000000238E+00    3.3442000000000185E+01
             1.0148000000000053E+01    7.3890000000000429E+00    3.3442000000000185E+01
             1.3104000000000067E+01    1.4780000000000078E+00    3.3442000000000185E+01
             1.3104000000000067E+01    4.4330000000000238E+00    3.3442000000000185E+01
             1.3104000000000067E+01    7.3890000000000429E+00    3.3442000000000185E+01
       &END COORD
       &VELOCITY
             0.0000000000000000E+00    0.0000000000000000E+00    0.0000000000000000E+00
             0.0000000000000000E+00    0.0000000000000000E+00    0.0000000000000000E+00
             0.0000000000000000E+00    0.0000000000000000E+00    0.0000000000000000E+00
             0.0000000000000000E+00    0.0000000000000000E+00    0.0000000000000000E+00
             0.0000000000000000E+00    0.0000000000000000E+00    0.0000000000000000E+00
             0.0000000000000000E+00    0.0000000000000000E+00    0.0000000000000000E+00
             0.0000000000000000E+00    0.0000000000000000E+00    0.0000000000000000E+00
             0.0000000000000000E+00    0.0000000000000000E+00    0.0000000000000000E+00
             0.0000000000000000E+00    0.0000000000000000E+00    0.0000000000000000E+00
             0.0000000000000000E+00    0.0000000000000000E+00    0.0000000000000000E+00
             0.0000000000000000E+00    0.0000000000000000E+00    0.0000000000000000E+00
             0.0000000000000000E+00    0.0000000000000000E+00    0.0000000000000000E+00
             0.0000000000000000E+00    0.0000000000000000E+00    0.0000000000000000E+00
             0.0000000000000000E+00    0.0000000000000000E+00    0.0000000000000000E+00
             0.0000000000000000E+00    0.0000000000000000E+00    0.0000000000000000E+00
             0.0000000000000000E+00    0.0000000000000000E+00    0.0000000000000000E+00
             0.0000000000000000E+00    0.0000000000000000E+00    0.0000000000000000E+00
             0.0000000000000000E+00    0.0000000000000000E+00    0.0000000000000000E+00
             0.0000000000000000E+00    0.0000000000000000E+00    0.0000000000000000E+00
             0.0000000000000000E+00    0.0000000000000000E+00    0.0000000000000000E+00
             0.0000000000000000E+00    0.0000000000000000E+00    0.0000000000000000E+00
             0.0000000000000000E+00    0.0000000000000000E+00    0.0000000000000000E+00
             0.0000000000000000E+00    0.0000000000000000E+00    0.0000000000000000E+00
             0.0000000000000000E+00    0.0000000000000000E+00    0.0000000000000000E+00
             0.0000000000000000E+00    0.0000000000000000E+00    0.0000000000000000E+00
             0.0000000000000000E+00    0.0000000000000000E+00    0.0000000000000000E+00
             0.0000000000000000E+00    0.0000000000000000E+00    0.0000000000000000E+00
             0.0000000000000000E+00    0.0000000000000000E+00    0.0000000000000000E+00
             0.0000000000000000E+00    0.0000000000000000E+00    0.0000000000000000E+00
             0.0000000000000000E+00    0.0000000000000000E+00    0.0000000000000000E+00
             0.0000000000000000E+00    0.0000000000000000E+00    0.0000000000000000E+00
             0.0000000000000000E+00    0.0000000000000000E+00    0.0000000000000000E+00
             0.0000000000000000E+00    0.0000000000000000E+00    0.0000000000000000E+00
             0.0000000000000000E+00    0.0000000000000000E+00    0.0000000000000000E+00
             0.0000000000000000E+00    0.0000000000000000E+00    0.0000000000000000E+00
             0.0000000000000000E+00    0.0000000000000000E+00    0.0000000000000000E+00
             0.0000000000000000E+00    0.0000000000000000E+00    0.0000000000000000E+00
             0.0000000000000000E+00    0.0000000000000000E+00    0.0000000000000000E+00
             0.0000000000000000E+00    0.0000000000000000E+00    0.0000000000000000E+00
             0.0000000000000000E+00    0.0000000000000000E+00    0.0000000000000000E+00
             0.0000000000000000E+00    0.0000000000000000E+00    0.0000000000000000E+00
             0.0000000000000000E+00    0.0000000000000000E+00    0.0000000000000000E+00
             0.0000000000000000E+00    0.0000000000000000E+00    0.0000000000000000E+00
             0.0000000000000000E+00    0.0000000000000000E+00    0.0000000000000000E+00
             0.0000000000000000E+00    0.0000000000000000E+00    0.0000000000000000E+00
             0.0000000000000000E+00    0.0000000000000000E+00    0.0000000000000000E+00
             0.0000000000000000E+00    0.0000000000000000E+00    0.0000000000000000E+00
             0.0000000000000000E+00    0.0000000000000000E+00    0.0000000000000000E+00
             0.0000000000000000E+00    0.0000000000000000E+00    0.0000000000000000E+00
             0.0000000000000000E+00    0.0000000000000000E+00    0.0000000000000000E+00
             0.0000000000000000E+00    0.0000000000000000E+00    0.0000000000000000E+00
             0.0000000000000000E+00    0.0000000000000000E+00    0.0000000000000000E+00
             0.0000000000000000E+00    0.0000000000000000E+00    0.0000000000000000E+00
             0.0000000000000000E+00    0.0000000000000000E+00    0.0000000000000000E+00
             0.0000000000000000E+00    0.0000000000000000E+00    0.0000000000000000E+00
             0.0000000000000000E+00    0.0000000000000000E+00    0.0000000000000000E+00
             0.0000000000000000E+00    0.0000000000000000E+00    0.0000000000000000E+00
             0.0000000000000000E+00    0.0000000000000000E+00    0.0000000000000000E+00
             0.0000000000000000E+00    0.0000000000000000E+00    0.0000000000000000E+00
             0.0000000000000000E+00    0.0000000000000000E+00    0.0000000000000000E+00
             0.0000000000000000E+00    0.0000000000000000E+00    0.0000000000000000E+00
             0.0000000000000000E+00    0.0000000000000000E+00    0.0000000000000000E+00
             0.0000000000000000E+00    0.0000000000000000E+00    0.0000000000000000E+00
             0.0000000000000000E+00    0.0000000000000000E+00    0.0000000000000000E+00
             0.0000000000000000E+00    0.0000000000000000E+00    0.0000000000000000E+00
             0.0000000000000000E+00    0.0000000000000000E+00    0.0000000000000000E+00
             0.0000000000000000E+00    0.0000000000000000E+00    0.0000000000000000E+00
             0.0000000000000000E+00    0.0000000000000000E+00    0.0000000000000000E+00
             0.0000000000000000E+00    0.0000000000000000E+00    0.0000000000000000E+00
             0.0000000000000000E+00    0.0000000000000000E+00    0.0000000000000000E+00
             0.0000000000000000E+00    0.0000000000000000E+00    0.0000000000000000E+00
             0.0000000000000000E+00    0.0000000000000000E+00    0.0000000000000000E+00
             0.0000000000000000E+00    0.0000000000000000E+00    0.0000000000000000E+00
             0.0000000000000000E+00    0.0000000000000000E+00    0.0000000000000000E+00
             0.0000000000000000E+00    0.0000000000000000E+00    0.0000000000000000E+00
             0.0000000000000000E+00    0.0000000000000000E+00    0.0000000000000000E+00
             0.0000000000000000E+00    0.0000000000000000E+00    0.0000000000000000E+00
             0.0000000000000000E+00    0.0000000000000000E+00    0.0000000000000000E+00
             0.0000000000000000E+00    0.0000000000000000E+00    0.0000000000000000E+00
             0.0000000000000000E+00    0.0000000000000000E+00    0.0000000000000000E+00
             0.0000000000000000E+00    0.0000000000000000E+00    0.0000000000000000E+00
             0.0000000000000000E+00    0.0000000000000000E+00    0.0000000000000000E+00
             0.0000000000000000E+00    0.0000000000000000E+00    0.0000000000000000E+00
             0.0000000000000000E+00    0.0000000000000000E+00    0.0000000000000000E+00
             0.0000000000000000E+00    0.0000000000000000E+00    0.0000000000000000E+00
             0.0000000000000000E+00    0.0000000000000000E+00    0.0000000000000000E+00
             0.0000000000000000E+00    0.0000000000000000E+00    0.0000000000000000E+00
             0.0000000000000000E+00    0.0000000000000000E+00    0.0000000000000000E+00
             0.0000000000000000E+00    0.0000000000000000E+00    0.0000000000000000E+00
             0.0000000000000000E+00    0.0000000000000000E+00    0.0000000000000000E+00
             0.0000000000000000E+00    0.0000000000000000E+00    0.0000000000000000E+00
             0.0000000000000000E+00    0.0000000000000000E+00    0.0000000000000000E+00
             0.0000000000000000E+00    0.0000000000000000E+00    0.0000000000000000E+00
             0.0000000000000000E+00    0.0000000000000000E+00    0.0000000000000000E+00
             0.0000000000000000E+00    0.0000000000000000E+00    0.0000000000000000E+00
             0.0000000000000000E+00    0.0000000000000000E+00    0.0000000000000000E+00
             0.0000000000000000E+00    0.0000000000000000E+00    0.0000000000000000E+00
             0.0000000000000000E+00    0.0000000000000000E+00    0.0000000000000000E+00
             0.0000000000000000E+00    0.0000000000000000E+00    0.0000000000000000E+00
             0.0000000000000000E+00    0.0000000000000000E+00    0.0000000000000000E+00
             0.0000000000000000E+00    0.0000000000000000E+00    0.0000000000000000E+00
             0.0000000000000000E+00    0.0000000000000000E+00    0.0000000000000000E+00
             0.0000000000000000E+00    0.0000000000000000E+00    0.0000000000000000E+00
             0.0000000000000000E+00    0.0000000000000000E+00    0.0000000000000000E+00
             0.0000000000000000E+00    0.0000000000000000E+00    0.0000000000000000E+00
             0.0000000000000000E+00    0.0000000000000000E+00    0.0000000000000000E+00
             0.0000000000000000E+00    0.0000000000000000E+00    0.0000000000000000E+00
             0.0000000000000000E+00    0.0000000000000000E+00    0.0000000000000000E+00
             0.0000000000000000E+00    0.0000000000000000E+00    0.0000000000000000E+00
             0.0000000000000000E+00    0.0000000000000000E+00    0.0000000000000000E+00
             0.0000000000000000E+00    0.0000000000000000E+00    0.0000000000000000E+00
             0.0000000000000000E+00    0.0000000000000000E+00    0.0000000000000000E+00
             0.0000000000000000E+00    0.0000000000000000E+00    0.0000000000000000E+00
             0.0000000000000000E+00    0.0000000000000000E+00    0.0000000000000000E+00
             0.0000000000000000E+00    0.0000000000000000E+00    0.0000000000000000E+00
             0.0000000000000000E+00    0.0000000000000000E+00    0.0000000000000000E+00
             0.0000000000000000E+00    0.0000000000000000E+00    0.0000000000000000E+00
             0.0000000000000000E+00    0.0000000000000000E+00    0.0000000000000000E+00
             0.0000000000000000E+00    0.0000000000000000E+00    0.0000000000000000E+00
             0.0000000000000000E+00    0.0000000000000000E+00    0.0000000000000000E+00
             0.0000000000000000E+00    0.0000000000000000E+00    0.0000000000000000E+00
             0.0000000000000000E+00    0.0000000000000000E+00    0.0000000000000000E+00
             0.0000000000000000E+00    0.0000000000000000E+00    0.0000000000000000E+00
             0.0000000000000000E+00    0.0000000000000000E+00    0.0000000000000000E+00
             0.0000000000000000E+00    0.0000000000000000E+00    0.0000000000000000E+00
             0.0000000000000000E+00    0.0000000000000000E+00    0.0000000000000000E+00
             0.0000000000000000E+00    0.0000000000000000E+00    0.0000000000000000E+00
             0.0000000000000000E+00    0.0000000000000000E+00    0.0000000000000000E+00
             0.0000000000000000E+00    0.0000000000000000E+00    0.0000000000000000E+00
             0.0000000000000000E+00    0.0000000000000000E+00    0.0000000000000000E+00
             0.0000000000000000E+00    0.0000000000000000E+00    0.0000000000000000E+00
             0.0000000000000000E+00    0.0000000000000000E+00    0.0000000000000000E+00
             0.0000000000000000E+00    0.0000000000000000E+00    0.0000000000000000E+00
             0.0000000000000000E+00    0.0000000000000000E+00    0.0000000000000000E+00
             0.0000000000000000E+00    0.0000000000000000E+00    0.0000000000000000E+00
             0.0000000000000000E+00    0.0000000000000000E+00    0.0000000000000000E+00
             0.0000000000000000E+00    0.0000000000000000E+00    0.0000000000000000E+00
             0.0000000000000000E+00    0.0000000000000000E+00    0.0000000000000000E+00
             0.0000000000000000E+00    0.0000000000000000E+00    0.0000000000000000E+00
             0.0000000000000000E+00    0.0000000000000000E+00    0.0000000000000000E+00
             0.0000000000000000E+00    0.0000000000000000E+00    0.0000000000000000E+00
             0.0000000000000000E+00    0.0000000000000000E+00    0.0000000000000000E+00
             0.0000000000000000E+00    0.0000000000000000E+00    0.0000000000000000E+00
             0.0000000000000000E+00    0.0000000000000000E+00    0.0000000000000000E+00
             0.0000000000000000E+00    0.0000000000000000E+00    0.0000000000000000E+00