 # Version information for this restart file 
 # current date 2024-01-13 04:41:15.616
 # current working dir /gpfs/home/cahart/transport/melamine/au_from-h2/ci-neb/ts1/dft_leads-sz_tip-dzvp_surf-dzvp_kpoints-2-4-20_replicas-5
 # Program compiled at                              Thu 21 Sep 19:20:17 BST 2023
 # Program compiled on                                           hx1-c12-login-1
 # Program compiled for                                                    local
 # Source code revision number                                       git:5518aa6
 &GLOBAL
   EXTENDED_FFT_LENGTHS  T
   PRINT_LEVEL  MEDIUM
   PROJECT_NAME 2_dft_wfn-r-0
   OUTPUT_FILE_NAME 2_dft_wfn-r-0.out
   RUN_TYPE  BAND
 &END GLOBAL
 &MOTION
   &BAND
     NPROC_REP  64
     BAND_TYPE  CI-NEB
     NUMBER_OF_REPLICA  5
     K_SPRING     5.0000000000000003E-02
     &CI_NEB
       NSTEPS_IT  5
     &END CI_NEB
     &OPTIMIZE_BAND
       OPT_TYPE  DIIS
       &DIIS
         MAX_STEPS  1000
       &END DIIS
     &END OPTIMIZE_BAND
     &REPLICA
       &COORD
             0.0000000000000000E+00    0.0000000000000000E+00    0.0000000000000000E+00
             0.0000000000000000E+00    2.9550000000000418E+00    0.0000000000000000E+00
             0.0000000000000000E+00    5.9110000000000795E+00    0.0000000000000000E+00
             2.9560000000000439E+00    0.0000000000000000E+00    0.0000000000000000E+00
             2.9560000000000439E+00    2.9550000000000418E+00    0.0000000000000000E+00
             2.9560000000000439E+00    5.9110000000000795E+00    0.0000000000000000E+00
             5.9120000000000879E+00    0.0000000000000000E+00    0.0000000000000000E+00
             5.9120000000000879E+00    2.9550000000000418E+00    0.0000000000000000E+00
             5.9120000000000879E+00    5.9110000000000795E+00    0.0000000000000000E+00
             8.6700000000001332E+00    0.0000000000000000E+00    0.0000000000000000E+00
             8.6700000000001332E+00    2.9550000000000418E+00    0.0000000000000000E+00
             8.6700000000001332E+00    5.9110000000000795E+00    0.0000000000000000E+00
             1.1626000000000172E+01    0.0000000000000000E+00    0.0000000000000000E+00
             1.1626000000000172E+01    2.9550000000000418E+00    0.0000000000000000E+00
             1.1626000000000172E+01    5.9110000000000795E+00    0.0000000000000000E+00
             1.4780000000000220E+00    1.4780000000000220E+00    2.0900000000000296E+00
             1.4780000000000220E+00    4.4330000000000656E+00    2.0900000000000296E+00
             1.4780000000000220E+00    7.3890000000001077E+00    2.0900000000000296E+00
             4.4340000000000650E+00    1.4780000000000220E+00    2.0900000000000296E+00
             4.4340000000000650E+00    4.4330000000000656E+00    2.0900000000000296E+00
             4.4340000000000650E+00    7.3890000000001077E+00    2.0900000000000296E+00
             7.1920000000001032E+00    1.4780000000000220E+00    2.0900000000000296E+00
             7.1920000000001032E+00    4.4330000000000656E+00    2.0900000000000296E+00
             7.1920000000001032E+00    7.3890000000001077E+00    2.0900000000000296E+00
             1.0148000000000149E+01    1.4780000000000220E+00    2.0900000000000296E+00
             1.0148000000000149E+01    4.4330000000000656E+00    2.0900000000000296E+00
             1.0148000000000149E+01    7.3890000000001077E+00    2.0900000000000296E+00
             1.3104000000000186E+01    1.4780000000000220E+00    2.0900000000000296E+00
             1.3104000000000186E+01    4.4330000000000656E+00    2.0900000000000296E+00
             1.3104000000000186E+01    7.3890000000001077E+00    2.0900000000000296E+00
             0.0000000000000000E+00    0.0000000000000000E+00    4.1800000000000592E+00
             0.0000000000000000E+00    2.9550000000000418E+00    4.1800000000000592E+00
             0.0000000000000000E+00    5.9110000000000795E+00    4.1800000000000592E+00
             2.9560000000000439E+00    0.0000000000000000E+00    4.1800000000000592E+00
             2.9560000000000439E+00    2.9550000000000418E+00    4.1800000000000592E+00
             2.9560000000000439E+00    5.9110000000000795E+00    4.1800000000000592E+00
             5.9120000000000879E+00    0.0000000000000000E+00    4.1800000000000592E+00
             5.9120000000000879E+00    2.9550000000000418E+00    4.1800000000000592E+00
             5.9120000000000879E+00    5.9110000000000795E+00    4.1800000000000592E+00
             8.6700000000001332E+00    0.0000000000000000E+00    4.1800000000000592E+00
             8.6700000000001332E+00    2.9550000000000418E+00    4.1800000000000592E+00
             8.6700000000001332E+00    5.9110000000000795E+00    4.1800000000000592E+00
             1.1626000000000172E+01    0.0000000000000000E+00    4.1800000000000592E+00
             1.1626000000000172E+01    2.9550000000000418E+00    4.1800000000000592E+00
             1.1626000000000172E+01    5.9110000000000795E+00    4.1800000000000592E+00
             1.4780000000000220E+00    1.4780000000000220E+00    6.2700000000000884E+00
             1.4780000000000220E+00    4.4330000000000656E+00    6.2700000000000884E+00
             1.4780000000000220E+00    7.3890000000001077E+00    6.2700000000000884E+00
             4.4340000000000650E+00    1.4780000000000220E+00    6.2700000000000884E+00
             4.4340000000000650E+00    4.4330000000000656E+00    6.2700000000000884E+00
             4.4340000000000650E+00    7.3890000000001077E+00    6.2700000000000884E+00
             7.1920000000001032E+00    1.4780000000000220E+00    6.2700000000000884E+00
             7.1920000000001032E+00    4.4330000000000656E+00    6.2700000000000884E+00
             7.1920000000001032E+00    7.3890000000001077E+00    6.2700000000000884E+00
             1.0148000000000149E+01    1.4780000000000220E+00    6.2700000000000884E+00
             1.0148000000000149E+01    4.4330000000000656E+00    6.2700000000000884E+00
             1.0148000000000149E+01    7.3890000000001077E+00    6.2700000000000884E+00
             1.3104000000000186E+01    1.4780000000000220E+00    6.2700000000000884E+00
             1.3104000000000186E+01    4.4330000000000656E+00    6.2700000000000884E+00
             1.3104000000000186E+01    7.3890000000001077E+00    6.2700000000000884E+00
             0.0000000000000000E+00    0.0000000000000000E+00    8.3600000000001184E+00
             0.0000000000000000E+00    2.9550000000000418E+00    8.3600000000001184E+00
             0.0000000000000000E+00    5.9110000000000795E+00    8.3600000000001184E+00
             2.9560000000000439E+00    0.0000000000000000E+00    8.3600000000001184E+00
             2.9560000000000439E+00    2.9550000000000418E+00    8.3600000000001184E+00
             2.9560000000000439E+00    5.9110000000000795E+00    8.3600000000001184E+00
             5.9120000000000879E+00    0.0000000000000000E+00    8.3600000000001184E+00
             5.9120000000000879E+00    2.9550000000000418E+00    8.3600000000001184E+00
             5.9120000000000879E+00    5.9110000000000795E+00    8.3600000000001184E+00
             8.6700000000001332E+00    0.0000000000000000E+00    8.3600000000001184E+00
             8.6700000000001332E+00    2.9550000000000418E+00    8.3600000000001184E+00
             8.6700000000001332E+00    5.9110000000000795E+00    8.3600000000001184E+00
             1.1626000000000172E+01    0.0000000000000000E+00    8.3600000000001184E+00
             1.1626000000000172E+01    2.9550000000000418E+00    8.3600000000001184E+00
             1.1626000000000172E+01    5.9110000000000795E+00    8.3600000000001184E+00
             1.4780000000000220E+00    1.4780000000000220E+00    1.0450000000000154E+01
             1.4780000000000220E+00    4.4330000000000656E+00    1.0450000000000154E+01
             1.4780000000000220E+00    7.3890000000001077E+00    1.0450000000000154E+01
             4.4340000000000650E+00    1.4780000000000220E+00    1.0450000000000154E+01
             4.4340000000000650E+00    4.4330000000000656E+00    1.0450000000000154E+01
             4.4340000000000650E+00    7.3890000000001077E+00    1.0450000000000154E+01
             7.1920000000001032E+00    1.4780000000000220E+00    1.0450000000000154E+01
             7.1920000000001032E+00    4.4330000000000656E+00    1.0450000000000154E+01
             7.1920000000001032E+00    7.3890000000001077E+00    1.0450000000000154E+01
             1.0148000000000149E+01    1.4780000000000220E+00    1.0450000000000154E+01
             1.0148000000000149E+01    4.4330000000000656E+00    1.0450000000000154E+01
             1.0148000000000149E+01    7.3890000000001077E+00    1.0450000000000154E+01
             1.3104000000000186E+01    1.4780000000000220E+00    1.0450000000000154E+01
             1.3104000000000186E+01    4.4330000000000656E+00    1.0450000000000154E+01
             1.3104000000000186E+01    7.3890000000001077E+00    1.0450000000000154E+01
             4.8554000000000794E+00    5.9119000000000854E+00    1.2031800000000176E+01
             9.5280000000001408E+00    5.9137000000000830E+00    1.2034000000000189E+01
             7.1920000000001032E+00    5.9340000000000916E+00    1.2040000000000180E+01
             4.0750319168000573E+00    5.9049488170000881E+00    1.2696844061800178E+01
             1.0293988349500149E+01    5.9062142779000819E+00    1.2716532694500209E+01
             6.0099999686000931E+00    5.9120523853000888E+00    1.2765819797400189E+01
             8.3750478948001206E+00    5.9129627335000814E+00    1.2760746495900179E+01
             8.4047327065001216E+00    5.8893877816000844E+00    1.4094060897200190E+01
             5.9788500869000920E+00    5.8882515165000857E+00    1.4094239568500218E+01
             7.1943473363001047E+00    5.8799164377000812E+00    1.4701118490300212E+01
             7.1912293097001028E+00    5.8521058221000883E+00    1.6050622658200243E+01
             6.3086348447000997E+00    5.8615539361000915E+00    1.6548439365000245E+01
             8.0709262665001216E+00    5.8621389354000790E+00    1.6553588809700241E+01
             7.3120000000001060E+00    5.9340000000000916E+00    2.1043000000000291E+01
             5.8130000000000859E+00    7.4340000000001130E+00    2.2992000000000353E+01
             8.8130000000001267E+00    4.4340000000000650E+00    2.2992000000000353E+01
             5.8130000000000859E+00    4.4330000000000656E+00    2.2992000000000353E+01
             8.8130000000001267E+00    7.4340000000001130E+00    2.2992000000000353E+01
             1.4780000000000220E+00    1.4780000000000220E+00    2.5082000000000328E+01
             1.4780000000000220E+00    4.4330000000000656E+00    2.5082000000000328E+01
             1.4780000000000220E+00    7.3890000000001077E+00    2.5082000000000328E+01
             4.4340000000000650E+00    1.4780000000000220E+00    2.5082000000000328E+01
             4.4340000000000650E+00    4.4330000000000656E+00    2.5082000000000328E+01
             4.4340000000000650E+00    7.3890000000001077E+00    2.5082000000000328E+01
             7.1920000000001032E+00    1.4780000000000220E+00    2.5082000000000328E+01
             7.1920000000001032E+00    4.4330000000000656E+00    2.5082000000000328E+01
             7.1920000000001032E+00    7.3890000000001077E+00    2.5082000000000328E+01
             1.0148000000000149E+01    1.4780000000000220E+00    2.5082000000000328E+01
             1.0148000000000149E+01    4.4330000000000656E+00    2.5082000000000328E+01
             1.0148000000000149E+01    7.3890000000001077E+00    2.5082000000000328E+01
             1.3104000000000186E+01    1.4780000000000220E+00    2.5082000000000328E+01
             1.3104000000000186E+01    4.4330000000000656E+00    2.5082000000000328E+01
             1.3104000000000186E+01    7.3890000000001077E+00    2.5082000000000328E+01
             0.0000000000000000E+00    0.0000000000000000E+00    2.7172000000000399E+01
             0.0000000000000000E+00    2.9550000000000418E+00    2.7172000000000399E+01
             0.0000000000000000E+00    5.9110000000000795E+00    2.7172000000000399E+01
             2.9560000000000439E+00    0.0000000000000000E+00    2.7172000000000399E+01
             2.9560000000000439E+00    2.9550000000000418E+00    2.7172000000000399E+01
             2.9560000000000439E+00    5.9110000000000795E+00    2.7172000000000399E+01
             5.9120000000000879E+00    0.0000000000000000E+00    2.7172000000000399E+01
             5.9120000000000879E+00    2.9550000000000418E+00    2.7172000000000399E+01
             5.9120000000000879E+00    5.9110000000000795E+00    2.7172000000000399E+01
             8.6700000000001332E+00    0.0000000000000000E+00    2.7172000000000399E+01
             8.6700000000001332E+00    2.9550000000000418E+00    2.7172000000000399E+01
             8.6700000000001332E+00    5.9110000000000795E+00    2.7172000000000399E+01
             1.1626000000000172E+01    0.0000000000000000E+00    2.7172000000000399E+01
             1.1626000000000172E+01    2.9550000000000418E+00    2.7172000000000399E+01
             1.1626000000000172E+01    5.9110000000000795E+00    2.7172000000000399E+01
             1.4780000000000220E+00    1.4780000000000220E+00    2.9262000000000402E+01
             1.4780000000000220E+00    4.4330000000000656E+00    2.9262000000000402E+01
             1.4780000000000220E+00    7.3890000000001077E+00    2.9262000000000402E+01
             4.4340000000000650E+00    1.4780000000000220E+00    2.9262000000000402E+01
             4.4340000000000650E+00    4.4330000000000656E+00    2.9262000000000402E+01
             4.4340000000000650E+00    7.3890000000001077E+00    2.9262000000000402E+01
             7.1920000000001032E+00    1.4780000000000220E+00    2.9262000000000402E+01
             7.1920000000001032E+00    4.4330000000000656E+00    2.9262000000000402E+01
             7.1920000000001032E+00    7.3890000000001077E+00    2.9262000000000402E+01
             1.0148000000000149E+01    1.4780000000000220E+00    2.9262000000000402E+01
             1.0148000000000149E+01    4.4330000000000656E+00    2.9262000000000402E+01
             1.0148000000000149E+01    7.3890000000001077E+00    2.9262000000000402E+01
             1.3104000000000186E+01    1.4780000000000220E+00    2.9262000000000402E+01
             1.3104000000000186E+01    4.4330000000000656E+00    2.9262000000000402E+01
             1.3104000000000186E+01    7.3890000000001077E+00    2.9262000000000402E+01
             0.0000000000000000E+00    0.0000000000000000E+00    3.1352000000000452E+01
             0.0000000000000000E+00    2.9550000000000418E+00    3.1352000000000452E+01
             0.0000000000000000E+00    5.9110000000000795E+00    3.1352000000000452E+01
             2.9560000000000439E+00    0.0000000000000000E+00    3.1352000000000452E+01
             2.9560000000000439E+00    2.9550000000000418E+00    3.1352000000000452E+01
             2.9560000000000439E+00    5.9110000000000795E+00    3.1352000000000452E+01
             5.9120000000000879E+00    0.0000000000000000E+00    3.1352000000000452E+01
             5.9120000000000879E+00    2.9550000000000418E+00    3.1352000000000452E+01
             5.9120000000000879E+00    5.9110000000000795E+00    3.1352000000000452E+01
             8.6700000000001332E+00    0.0000000000000000E+00    3.1352000000000452E+01
             8.6700000000001332E+00    2.9550000000000418E+00    3.1352000000000452E+01
             8.6700000000001332E+00    5.9110000000000795E+00    3.1352000000000452E+01
             1.1626000000000172E+01    0.0000000000000000E+00    3.1352000000000452E+01
             1.1626000000000172E+01    2.9550000000000418E+00    3.1352000000000452E+01
             1.1626000000000172E+01    5.9110000000000795E+00    3.1352000000000452E+01
             1.4780000000000220E+00    1.4780000000000220E+00    3.3442000000000483E+01
             1.4780000000000220E+00    4.4330000000000656E+00    3.3442000000000483E+01
             1.4780000000000220E+00    7.3890000000001077E+00    3.3442000000000483E+01
             4.4340000000000650E+00    1.4780000000000220E+00    3.3442000000000483E+01
             4.4340000000000650E+00    4.4330000000000656E+00    3.3442000000000483E+01
             4.4340000000000650E+00    7.3890000000001077E+00    3.3442000000000483E+01
             7.1920000000001032E+00    1.4780000000000220E+00    3.3442000000000483E+01
             7.1920000000001032E+00    4.4330000000000656E+00    3.3442000000000483E+01
             7.1920000000001032E+00    7.3890000000001077E+00    3.3442000000000483E+01
             1.0148000000000149E+01    1.4780000000000220E+00    3.3442000000000483E+01
             1.0148000000000149E+01    4.4330000000000656E+00    3.3442000000000483E+01
             1.0148000000000149E+01    7.3890000000001077E+00    3.3442000000000483E+01
             1.3104000000000186E+01    1.4780000000000220E+00    3.3442000000000483E+01
             1.3104000000000186E+01    4.4330000000000656E+00    3.3442000000000483E+01
             1.3104000000000186E+01    7.3890000000001077E+00    3.3442000000000483E+01
       &END COORD
       &VELOCITY
             0.0000000000000000E+00    0.0000000000000000E+00    0.0000000000000000E+00
             0.0000000000000000E+00    0.0000000000000000E+00    0.0000000000000000E+00
             0.0000000000000000E+00    0.0000000000000000E+00    0.0000000000000000E+00
             0.0000000000000000E+00    0.0000000000000000E+00    0.0000000000000000E+00
             0.0000000000000000E+00    0.0000000000000000E+00    0.0000000000000000E+00
             0.0000000000000000E+00    0.0000000000000000E+00    0.0000000000000000E+00
             0.0000000000000000E+00    0.0000000000000000E+00    0.0000000000000000E+00
             0.0000000000000000E+00    0.0000000000000000E+00    0.0000000000000000E+00
             0.0000000000000000E+00    0.0000000000000000E+00    0.0000000000000000E+00
             0.0000000000000000E+00    0.0000000000000000E+00    0.0000000000000000E+00
             0.0000000000000000E+00    0.0000000000000000E+00    0.0000000000000000E+00
             0.0000000000000000E+00    0.0000000000000000E+00    0.0000000000000000E+00
             0.0000000000000000E+00    0.0000000000000000E+00    0.0000000000000000E+00
             0.0000000000000000E+00    0.0000000000000000E+00    0.0000000000000000E+00
             0.0000000000000000E+00    0.0000000000000000E+00    0.0000000000000000E+00
             0.0000000000000000E+00    0.0000000000000000E+00    0.0000000000000000E+00
             0.0000000000000000E+00    0.0000000000000000E+00    0.0000000000000000E+00
             0.0000000000000000E+00    0.0000000000000000E+00    0.0000000000000000E+00
             0.0000000000000000E+00    0.0000000000000000E+00    0.0000000000000000E+00
             0.0000000000000000E+00    0.0000000000000000E+00    0.0000000000000000E+00
             0.0000000000000000E+00    0.0000000000000000E+00    0.0000000000000000E+00
             0.0000000000000000E+00    0.0000000000000000E+00    0.0000000000000000E+00
             0.0000000000000000E+00    0.0000000000000000E+00    0.0000000000000000E+00
             0.0000000000000000E+00    0.0000000000000000E+00    0.0000000000000000E+00
             0.0000000000000000E+00    0.0000000000000000E+00    0.0000000000000000E+00
             0.0000000000000000E+00    0.0000000000000000E+00    0.0000000000000000E+00
             0.0000000000000000E+00    0.0000000000000000E+00    0.0000000000000000E+00
             0.0000000000000000E+00    0.0000000000000000E+00    0.0000000000000000E+00
             0.0000000000000000E+00    0.0000000000000000E+00    0.0000000000000000E+00
             0.0000000000000000E+00    0.0000000000000000E+00    0.0000000000000000E+00
             0.0000000000000000E+00    0.0000000000000000E+00    0.0000000000000000E+00
             0.0000000000000000E+00    0.0000000000000000E+00    0.0000000000000000E+00
             0.0000000000000000E+00    0.0000000000000000E+00    0.0000000000000000E+00
             0.0000000000000000E+00    0.0000000000000000E+00    0.0000000000000000E+00
             0.0000000000000000E+00    0.0000000000000000E+00    0.0000000000000000E+00
             0.0000000000000000E+00    0.0000000000000000E+00    0.0000000000000000E+00
             0.0000000000000000E+00    0.0000000000000000E+00    0.0000000000000000E+00
             0.0000000000000000E+00    0.0000000000000000E+00    0.0000000000000000E+00
             0.0000000000000000E+00    0.0000000000000000E+00    0.0000000000000000E+00
             0.0000000000000000E+00    0.0000000000000000E+00    0.0000000000000000E+00
             0.0000000000000000E+00    0.0000000000000000E+00    0.0000000000000000E+00
             0.0000000000000000E+00    0.0000000000000000E+00    0.0000000000000000E+00
             0.0000000000000000E+00    0.0000000000000000E+00    0.0000000000000000E+00
             0.0000000000000000E+00    0.0000000000000000E+00    0.0000000000000000E+00
             0.0000000000000000E+00    0.0000000000000000E+00    0.0000000000000000E+00
             0.0000000000000000E+00    0.0000000000000000E+00    0.0000000000000000E+00
             0.0000000000000000E+00    0.0000000000000000E+00    0.0000000000000000E+00
             0.0000000000000000E+00    0.0000000000000000E+00    0.0000000000000000E+00
             0.0000000000000000E+00    0.0000000000000000E+00    0.0000000000000000E+00
             0.0000000000000000E+00    0.0000000000000000E+00    0.0000000000000000E+00
             0.0000000000000000E+00    0.0000000000000000E+00    0.0000000000000000E+00
             0.0000000000000000E+00    0.0000000000000000E+00    0.0000000000000000E+00
             0.0000000000000000E+00    0.0000000000000000E+00    0.0000000000000000E+00
             0.0000000000000000E+00    0.0000000000000000E+00    0.0000000000000000E+00
             0.0000000000000000E+00    0.0000000000000000E+00    0.0000000000000000E+00
             0.0000000000000000E+00    0.0000000000000000E+00    0.0000000000000000E+00
             0.0000000000000000E+00    0.0000000000000000E+00    0.0000000000000000E+00
             0.0000000000000000E+00    0.0000000000000000E+00    0.0000000000000000E+00
             0.0000000000000000E+00    0.0000000000000000E+00    0.0000000000000000E+00
             0.0000000000000000E+00    0.0000000000000000E+00    0.0000000000000000E+00
             0.0000000000000000E+00    0.0000000000000000E+00    0.0000000000000000E+00
             0.0000000000000000E+00    0.0000000000000000E+00    0.0000000000000000E+00
             0.0000000000000000E+00    0.0000000000000000E+00    0.0000000000000000E+00
             0.0000000000000000E+00    0.0000000000000000E+00    0.0000000000000000E+00
             0.0000000000000000E+00    0.0000000000000000E+00    0.0000000000000000E+00
             0.0000000000000000E+00    0.0000000000000000E+00    0.0000000000000000E+00
             0.0000000000000000E+00    0.0000000000000000E+00    0.0000000000000000E+00
             0.0000000000000000E+00    0.0000000000000000E+00    0.0000000000000000E+00
             0.0000000000000000E+00    0.0000000000000000E+00    0.0000000000000000E+00
             0.0000000000000000E+00    0.0000000000000000E+00    0.0000000000000000E+00
             0.0000000000000000E+00    0.0000000000000000E+00    0.0000000000000000E+00
             0.0000000000000000E+00    0.0000000000000000E+00    0.0000000000000000E+00
             0.0000000000000000E+00    0.0000000000000000E+00    0.0000000000000000E+00
             0.0000000000000000E+00    0.0000000000000000E+00    0.0000000000000000E+00
             0.0000000000000000E+00    0.0000000000000000E+00    0.0000000000000000E+00
             0.0000000000000000E+00    0.0000000000000000E+00    0.0000000000000000E+00
             0.0000000000000000E+00    0.0000000000000000E+00    0.0000000000000000E+00
             0.0000000000000000E+00    0.0000000000000000E+00    0.0000000000000000E+00
             0.0000000000000000E+00    0.0000000000000000E+00    0.0000000000000000E+00
             0.0000000000000000E+00    0.0000000000000000E+00    0.0000000000000000E+00
             0.0000000000000000E+00    0.0000000000000000E+00    0.0000000000000000E+00
             0.0000000000000000E+00    0.0000000000000000E+00    0.0000000000000000E+00
             0.0000000000000000E+00    0.0000000000000000E+00    0.0000000000000000E+00
             0.0000000000000000E+00    0.0000000000000000E+00    0.0000000000000000E+00
             0.0000000000000000E+00    0.0000000000000000E+00    0.0000000000000000E+00
             0.0000000000000000E+00    0.0000000000000000E+00    0.0000000000000000E+00
             0.0000000000000000E+00    0.0000000000000000E+00    0.0000000000000000E+00
             0.0000000000000000E+00    0.0000000000000000E+00    0.0000000000000000E+00
             0.0000000000000000E+00    0.0000000000000000E+00    0.0000000000000000E+00
             0.0000000000000000E+00    0.0000000000000000E+00    0.0000000000000000E+00
             0.0000000000000000E+00    0.0000000000000000E+00    0.0000000000000000E+00
             0.0000000000000000E+00    0.0000000000000000E+00    0.0000000000000000E+00
             0.0000000000000000E+00    0.0000000000000000E+00    0.0000000000000000E+00
             0.0000000000000000E+00    0.0000000000000000E+00    0.0000000000000000E+00
             0.0000000000000000E+00    0.0000000000000000E+00    0.0000000000000000E+00
             0.0000000000000000E+00    0.0000000000000000E+00    0.0000000000000000E+00
             0.0000000000000000E+00    0.0000000000000000E+00    0.0000000000000000E+00
             0.0000000000000000E+00    0.0000000000000000E+00    0.0000000000000000E+00
             0.0000000000000000E+00    0.0000000000000000E+00    0.0000000000000000E+00
             0.0000000000000000E+00    0.0000000000000000E+00    0.0000000000000000E+00
             0.0000000000000000E+00    0.0000000000000000E+00    0.0000000000000000E+00
             0.0000000000000000E+00    0.0000000000000000E+00    0.0000000000000000E+00
             0.0000000000000000E+00    0.0000000000000000E+00    0.0000000000000000E+00
             0.0000000000000000E+00    0.0000000000000000E+00    0.0000000000000000E+00
             0.0000000000000000E+00    0.0000000000000000E+00    0.0000000000000000E+00
             0.0000000000000000E+00    0.0000000000000000E+00    0.0000000000000000E+00
             0.0000000000000000E+00    0.0000000000000000E+00    0.0000000000000000E+00
             0.0000000000000000E+00    0.0000000000000000E+00    0.0000000000000000E+00
             0.0000000000000000E+00    0.0000000000000000E+00    0.0000000000000000E+00
             0.0000000000000000E+00    0.0000000000000000E+00    0.0000000000000000E+00
             0.0000000000000000E+00    0.0000000000000000E+00    0.0000000000000000E+00
             0.0000000000000000E+00    0.0000000000000000E+00    0.0000000000000000E+00
             0.0000000000000000E+00    0.0000000000000000E+00    0.0000000000000000E+00
             0.0000000000000000E+00    0.0000000000000000E+00    0.0000000000000000E+00
             0.0000000000000000E+00    0.0000000000000000E+00    0.0000000000000000E+00
             0.0000000000000000E+00    0.0000000000000000E+00    0.0000000000000000E+00
             0.0000000000000000E+00    0.0000000000000000E+00    0.0000000000000000E+00
             0.0000000000000000E+00    0.0000000000000000E+00    0.0000000000000000E+00
             0.0000000000000000E+00    0.0000000000000000E+00    0.0000000000000000E+00
             0.0000000000000000E+00    0.0000000000000000E+00    0.0000000000000000E+00
             0.0000000000000000E+00    0.0000000000000000E+00    0.0000000000000000E+00
             0.0000000000000000E+00    0.0000000000000000E+00    0.0000000000000000E+00
             0.0000000000000000E+00    0.0000000000000000E+00    0.0000000000000000E+00
             0.0000000000000000E+00    0.0000000000000000E+00    0.0000000000000000E+00
             0.0000000000000000E+00    0.0000000000000000E+00    0.0000000000000000E+00
             0.0000000000000000E+00    0.0000000000000000E+00    0.0000000000000000E+00
             0.0000000000000000E+00    0.0000000000000000E+00    0.0000000000000000E+00
             0.0000000000000000E+00    0.0000000000000000E+00    0.0000000000000000E+00
             0.0000000000000000E+00    0.0000000000000000E+00    0.0000000000000000E+00
             0.0000000000000000E+00    0.0000000000000000E+00    0.0000000000000000E+00
             0.0000000000000000E+00    0.0000000000000000E+00    0.0000000000000000E+00
             0.0000000000000000E+00    0.0000000000000000E+00    0.0000000000000000E+00
             0.0000000000000000E+00    0.0000000000000000E+00    0.0000000000000000E+00
             0.0000000000000000E+00    0.0000000000000000E+00    0.0000000000000000E+00
             0.0000000000000000E+00    0.0000000000000000E+00    0.0000000000000000E+00
             0.0000000000000000E+00    0.0000000000000000E+00    0.0000000000000000E+00
             0.0000000000000000E+00    0.0000000000000000E+00    0.0000000000000000E+00
             0.0000000000000000E+00    0.0000000000000000E+00    0.0000000000000000E+00
             0.0000000000000000E+00    0.0000000000000000E+00    0.0000000000000000E+00
             0.0000000000000000E+00    0.0000000000000000E+00    0.0000000000000000E+00
             0.0000000000000000E+00    0.0000000000000000E+00    0.0000000000000000E+00
             0.0000000000000000E+00    0.0000000000000000E+00    0.0000000000000000E+00
             0.0000000000000000E+00    0.0000000000000000E+00    0.0000000000000000E+00
             0.0000000000000000E+00    0.0000000000000000E+00    0.0000000000000000E+00
             0.0000000000000000E+00    0.0000000000000000E+00    0.0000000000000000E+00