 # Version information for this restart file 
 # current date 2024-01-13 04:48:06.088
 # current working dir /gpfs/home/cahart/transport/melamine/au_from-h2/ci-neb/ts1/dft_leads-sz_tip-dzvp_surf-dzvp_kpoints-2-4-20_replicas-5
 # Program compiled at                              Thu 21 Sep 19:20:17 BST 2023
 # Program compiled on                                           hx1-c12-login-1
 # Program compiled for                                                    local
 # Source code revision number                                       git:5518aa6
 &GLOBAL
   EXTENDED_FFT_LENGTHS  T
   PRINT_LEVEL  MEDIUM
   PROJECT_NAME 2_dft_wfn-r-0
   OUTPUT_FILE_NAME 2_dft_wfn-r-0.out
   RUN_TYPE  BAND
 &END GLOBAL
 &MOTION
   &BAND
     NPROC_REP  64
     BAND_TYPE  CI-NEB
     NUMBER_OF_REPLICA  5
     K_SPRING     5.0000000000000003E-02
     &CI_NEB
       NSTEPS_IT  5
     &END CI_NEB
     &OPTIMIZE_BAND
       OPT_TYPE  DIIS
       &DIIS
         MAX_STEPS  1000
       &END DIIS
     &END OPTIMIZE_BAND
     &REPLICA
       &COORD
             0.0000000000000000E+00    0.0000000000000000E+00    0.0000000000000000E+00
             0.0000000000000000E+00    2.9550000000000396E+00    0.0000000000000000E+00
             0.0000000000000000E+00    5.9110000000000769E+00    0.0000000000000000E+00
             2.9560000000000426E+00    0.0000000000000000E+00    0.0000000000000000E+00
             2.9560000000000426E+00    2.9550000000000396E+00    0.0000000000000000E+00
             2.9560000000000426E+00    5.9110000000000769E+00    0.0000000000000000E+00
             5.9120000000000852E+00    0.0000000000000000E+00    0.0000000000000000E+00
             5.9120000000000852E+00    2.9550000000000396E+00    0.0000000000000000E+00
             5.9120000000000852E+00    5.9110000000000769E+00    0.0000000000000000E+00
             8.6700000000001314E+00    0.0000000000000000E+00    0.0000000000000000E+00
             8.6700000000001314E+00    2.9550000000000396E+00    0.0000000000000000E+00
             8.6700000000001314E+00    5.9110000000000769E+00    0.0000000000000000E+00
             1.1626000000000165E+01    0.0000000000000000E+00    0.0000000000000000E+00
             1.1626000000000165E+01    2.9550000000000396E+00    0.0000000000000000E+00
             1.1626000000000165E+01    5.9110000000000769E+00    0.0000000000000000E+00
             1.4780000000000213E+00    1.4780000000000213E+00    2.0900000000000283E+00
             1.4780000000000213E+00    4.4330000000000629E+00    2.0900000000000283E+00
             1.4780000000000213E+00    7.3890000000001033E+00    2.0900000000000283E+00
             4.4340000000000632E+00    1.4780000000000213E+00    2.0900000000000283E+00
             4.4340000000000632E+00    4.4330000000000629E+00    2.0900000000000283E+00
             4.4340000000000632E+00    7.3890000000001033E+00    2.0900000000000283E+00
             7.1920000000000988E+00    1.4780000000000213E+00    2.0900000000000283E+00
             7.1920000000000988E+00    4.4330000000000629E+00    2.0900000000000283E+00
             7.1920000000000988E+00    7.3890000000001033E+00    2.0900000000000283E+00
             1.0148000000000142E+01    1.4780000000000213E+00    2.0900000000000283E+00
             1.0148000000000142E+01    4.4330000000000629E+00    2.0900000000000283E+00
             1.0148000000000142E+01    7.3890000000001033E+00    2.0900000000000283E+00
             1.3104000000000179E+01    1.4780000000000213E+00    2.0900000000000283E+00
             1.3104000000000179E+01    4.4330000000000629E+00    2.0900000000000283E+00
             1.3104000000000179E+01    7.3890000000001033E+00    2.0900000000000283E+00
             0.0000000000000000E+00    0.0000000000000000E+00    4.1800000000000566E+00
             0.0000000000000000E+00    2.9550000000000396E+00    4.1800000000000566E+00
             0.0000000000000000E+00    5.9110000000000769E+00    4.1800000000000566E+00
             2.9560000000000426E+00    0.0000000000000000E+00    4.1800000000000566E+00
             2.9560000000000426E+00    2.9550000000000396E+00    4.1800000000000566E+00
             2.9560000000000426E+00    5.9110000000000769E+00    4.1800000000000566E+00
             5.9120000000000852E+00    0.0000000000000000E+00    4.1800000000000566E+00
             5.9120000000000852E+00    2.9550000000000396E+00    4.1800000000000566E+00
             5.9120000000000852E+00    5.9110000000000769E+00    4.1800000000000566E+00
             8.6700000000001314E+00    0.0000000000000000E+00    4.1800000000000566E+00
             8.6700000000001314E+00    2.9550000000000396E+00    4.1800000000000566E+00
             8.6700000000001314E+00    5.9110000000000769E+00    4.1800000000000566E+00
             1.1626000000000165E+01    0.0000000000000000E+00    4.1800000000000566E+00
             1.1626000000000165E+01    2.9550000000000396E+00    4.1800000000000566E+00
             1.1626000000000165E+01    5.9110000000000769E+00    4.1800000000000566E+00
             1.4780000000000213E+00    1.4780000000000213E+00    6.2700000000000848E+00
             1.4780000000000213E+00    4.4330000000000629E+00    6.2700000000000848E+00
             1.4780000000000213E+00    7.3890000000001033E+00    6.2700000000000848E+00
             4.4340000000000632E+00    1.4780000000000213E+00    6.2700000000000848E+00
             4.4340000000000632E+00    4.4330000000000629E+00    6.2700000000000848E+00
             4.4340000000000632E+00    7.3890000000001033E+00    6.2700000000000848E+00
             7.1920000000000988E+00    1.4780000000000213E+00    6.2700000000000848E+00
             7.1920000000000988E+00    4.4330000000000629E+00    6.2700000000000848E+00
             7.1920000000000988E+00    7.3890000000001033E+00    6.2700000000000848E+00
             1.0148000000000142E+01    1.4780000000000213E+00    6.2700000000000848E+00
             1.0148000000000142E+01    4.4330000000000629E+00    6.2700000000000848E+00
             1.0148000000000142E+01    7.3890000000001033E+00    6.2700000000000848E+00
             1.3104000000000179E+01    1.4780000000000213E+00    6.2700000000000848E+00
             1.3104000000000179E+01    4.4330000000000629E+00    6.2700000000000848E+00
             1.3104000000000179E+01    7.3890000000001033E+00    6.2700000000000848E+00
             0.0000000000000000E+00    0.0000000000000000E+00    8.3600000000001131E+00
             0.0000000000000000E+00    2.9550000000000396E+00    8.3600000000001131E+00
             0.0000000000000000E+00    5.9110000000000769E+00    8.3600000000001131E+00
             2.9560000000000426E+00    0.0000000000000000E+00    8.3600000000001131E+00
             2.9560000000000426E+00    2.9550000000000396E+00    8.3600000000001131E+00
             2.9560000000000426E+00    5.9110000000000769E+00    8.3600000000001131E+00
             5.9120000000000852E+00    0.0000000000000000E+00    8.3600000000001131E+00
             5.9120000000000852E+00    2.9550000000000396E+00    8.3600000000001131E+00
             5.9120000000000852E+00    5.9110000000000769E+00    8.3600000000001131E+00
             8.6700000000001314E+00    0.0000000000000000E+00    8.3600000000001131E+00
             8.6700000000001314E+00    2.9550000000000396E+00    8.3600000000001131E+00
             8.6700000000001314E+00    5.9110000000000769E+00    8.3600000000001131E+00
             1.1626000000000165E+01    0.0000000000000000E+00    8.3600000000001131E+00
             1.1626000000000165E+01    2.9550000000000396E+00    8.3600000000001131E+00
             1.1626000000000165E+01    5.9110000000000769E+00    8.3600000000001131E+00
             1.4780000000000213E+00    1.4780000000000213E+00    1.0450000000000150E+01
             1.4780000000000213E+00    4.4330000000000629E+00    1.0450000000000150E+01
             1.4780000000000213E+00    7.3890000000001033E+00    1.0450000000000150E+01
             4.4340000000000632E+00    1.4780000000000213E+00    1.0450000000000150E+01
             4.4340000000000632E+00    4.4330000000000629E+00    1.0450000000000150E+01
             4.4340000000000632E+00    7.3890000000001033E+00    1.0450000000000150E+01
             7.1920000000000988E+00    1.4780000000000213E+00    1.0450000000000150E+01
             7.1920000000000988E+00    4.4330000000000629E+00    1.0450000000000150E+01
             7.1920000000000988E+00    7.3890000000001033E+00    1.0450000000000150E+01
             1.0148000000000142E+01    1.4780000000000213E+00    1.0450000000000150E+01
             1.0148000000000142E+01    4.4330000000000629E+00    1.0450000000000150E+01
             1.0148000000000142E+01    7.3890000000001033E+00    1.0450000000000150E+01
             1.3104000000000179E+01    1.4780000000000213E+00    1.0450000000000150E+01
             1.3104000000000179E+01    4.4330000000000629E+00    1.0450000000000150E+01
             1.3104000000000179E+01    7.3890000000001033E+00    1.0450000000000150E+01
             4.8554000000000768E+00    5.9119000000000819E+00    1.2031800000000167E+01
             9.5280000000001337E+00    5.9137000000000803E+00    1.2034000000000182E+01
             7.1920000000000988E+00    5.9340000000000899E+00    1.2040000000000175E+01
             4.0750319168000546E+00    5.9049488170000854E+00    1.2696844061800171E+01
             1.0293988349500143E+01    5.9062142779000784E+00    1.2716532694500199E+01
             6.0099999686000896E+00    5.9120523853000844E+00    1.2765819797400182E+01
             8.3750478948001152E+00    5.9129627335000787E+00    1.2760746495900170E+01
             8.4047327065001163E+00    5.8893877816000799E+00    1.4094060897200182E+01
             5.9788500869000867E+00    5.8882515165000813E+00    1.4094239568500210E+01
             7.1943473363000994E+00    5.8799164377000794E+00    1.4701118490300201E+01
             7.1912293097000983E+00    5.8521058221000857E+00    1.6050622658200236E+01
             6.3086348447000971E+00    5.8615539361000870E+00    1.6548439365000238E+01
             8.0709262665001162E+00    5.8621389354000764E+00    1.6553588809700233E+01
             7.3120000000001015E+00    5.9340000000000899E+00    2.1043000000000273E+01
             5.8130000000000823E+00    7.4340000000001094E+00    2.2992000000000342E+01
             8.8130000000001214E+00    4.4340000000000632E+00    2.2992000000000342E+01
             5.8130000000000823E+00    4.4330000000000629E+00    2.2992000000000342E+01
             8.8130000000001214E+00    7.4340000000001094E+00    2.2992000000000342E+01
             1.4780000000000213E+00    1.4780000000000213E+00    2.5082000000000313E+01
             1.4780000000000213E+00    4.4330000000000629E+00    2.5082000000000313E+01
             1.4780000000000213E+00    7.3890000000001033E+00    2.5082000000000313E+01
             4.4340000000000632E+00    1.4780000000000213E+00    2.5082000000000313E+01
             4.4340000000000632E+00    4.4330000000000629E+00    2.5082000000000313E+01
             4.4340000000000632E+00    7.3890000000001033E+00    2.5082000000000313E+01
             7.1920000000000988E+00    1.4780000000000213E+00    2.5082000000000313E+01
             7.1920000000000988E+00    4.4330000000000629E+00    2.5082000000000313E+01
             7.1920000000000988E+00    7.3890000000001033E+00    2.5082000000000313E+01
             1.0148000000000142E+01    1.4780000000000213E+00    2.5082000000000313E+01
             1.0148000000000142E+01    4.4330000000000629E+00    2.5082000000000313E+01
             1.0148000000000142E+01    7.3890000000001033E+00    2.5082000000000313E+01
             1.3104000000000179E+01    1.4780000000000213E+00    2.5082000000000313E+01
             1.3104000000000179E+01    4.4330000000000629E+00    2.5082000000000313E+01
             1.3104000000000179E+01    7.3890000000001033E+00    2.5082000000000313E+01
             0.0000000000000000E+00    0.0000000000000000E+00    2.7172000000000388E+01
             0.0000000000000000E+00    2.9550000000000396E+00    2.7172000000000388E+01
             0.0000000000000000E+00    5.9110000000000769E+00    2.7172000000000388E+01
             2.9560000000000426E+00    0.0000000000000000E+00    2.7172000000000388E+01
             2.9560000000000426E+00    2.9550000000000396E+00    2.7172000000000388E+01
             2.9560000000000426E+00    5.9110000000000769E+00    2.7172000000000388E+01
             5.9120000000000852E+00    0.0000000000000000E+00    2.7172000000000388E+01
             5.9120000000000852E+00    2.9550000000000396E+00    2.7172000000000388E+01
             5.9120000000000852E+00    5.9110000000000769E+00    2.7172000000000388E+01
             8.6700000000001314E+00    0.0000000000000000E+00    2.7172000000000388E+01
             8.6700000000001314E+00    2.9550000000000396E+00    2.7172000000000388E+01
             8.6700000000001314E+00    5.9110000000000769E+00    2.7172000000000388E+01
             1.1626000000000165E+01    0.0000000000000000E+00    2.7172000000000388E+01
             1.1626000000000165E+01    2.9550000000000396E+00    2.7172000000000388E+01
             1.1626000000000165E+01    5.9110000000000769E+00    2.7172000000000388E+01
             1.4780000000000213E+00    1.4780000000000213E+00    2.9262000000000395E+01
             1.4780000000000213E+00    4.4330000000000629E+00    2.9262000000000395E+01
             1.4780000000000213E+00    7.3890000000001033E+00    2.9262000000000395E+01
             4.4340000000000632E+00    1.4780000000000213E+00    2.9262000000000395E+01
             4.4340000000000632E+00    4.4330000000000629E+00    2.9262000000000395E+01
             4.4340000000000632E+00    7.3890000000001033E+00    2.9262000000000395E+01
             7.1920000000000988E+00    1.4780000000000213E+00    2.9262000000000395E+01
             7.1920000000000988E+00    4.4330000000000629E+00    2.9262000000000395E+01
             7.1920000000000988E+00    7.3890000000001033E+00    2.9262000000000395E+01
             1.0148000000000142E+01    1.4780000000000213E+00    2.9262000000000395E+01
             1.0148000000000142E+01    4.4330000000000629E+00    2.9262000000000395E+01
             1.0148000000000142E+01    7.3890000000001033E+00    2.9262000000000395E+01
             1.3104000000000179E+01    1.4780000000000213E+00    2.9262000000000395E+01
             1.3104000000000179E+01    4.4330000000000629E+00    2.9262000000000395E+01
             1.3104000000000179E+01    7.3890000000001033E+00    2.9262000000000395E+01
             0.0000000000000000E+00    0.0000000000000000E+00    3.1352000000000437E+01
             0.0000000000000000E+00    2.9550000000000396E+00    3.1352000000000437E+01
             0.0000000000000000E+00    5.9110000000000769E+00    3.1352000000000437E+01
             2.9560000000000426E+00    0.0000000000000000E+00    3.1352000000000437E+01
             2.9560000000000426E+00    2.9550000000000396E+00    3.1352000000000437E+01
             2.9560000000000426E+00    5.9110000000000769E+00    3.1352000000000437E+01
             5.9120000000000852E+00    0.0000000000000000E+00    3.1352000000000437E+01
             5.9120000000000852E+00    2.9550000000000396E+00    3.1352000000000437E+01
             5.9120000000000852E+00    5.9110000000000769E+00    3.1352000000000437E+01
             8.6700000000001314E+00    0.0000000000000000E+00    3.1352000000000437E+01
             8.6700000000001314E+00    2.9550000000000396E+00    3.1352000000000437E+01
             8.6700000000001314E+00    5.9110000000000769E+00    3.1352000000000437E+01
             1.1626000000000165E+01    0.0000000000000000E+00    3.1352000000000437E+01
             1.1626000000000165E+01    2.9550000000000396E+00    3.1352000000000437E+01
             1.1626000000000165E+01    5.9110000000000769E+00    3.1352000000000437E+01
             1.4780000000000213E+00    1.4780000000000213E+00    3.3442000000000462E+01
             1.4780000000000213E+00    4.4330000000000629E+00    3.3442000000000462E+01
             1.4780000000000213E+00    7.3890000000001033E+00    3.3442000000000462E+01
             4.4340000000000632E+00    1.4780000000000213E+00    3.3442000000000462E+01
             4.4340000000000632E+00    4.4330000000000629E+00    3.3442000000000462E+01
             4.4340000000000632E+00    7.3890000000001033E+00    3.3442000000000462E+01
             7.1920000000000988E+00    1.4780000000000213E+00    3.3442000000000462E+01
             7.1920000000000988E+00    4.4330000000000629E+00    3.3442000000000462E+01
             7.1920000000000988E+00    7.3890000000001033E+00    3.3442000000000462E+01
             1.0148000000000142E+01    1.4780000000000213E+00    3.3442000000000462E+01
             1.0148000000000142E+01    4.4330000000000629E+00    3.3442000000000462E+01
             1.0148000000000142E+01    7.3890000000001033E+00    3.3442000000000462E+01
             1.3104000000000179E+01    1.4780000000000213E+00    3.3442000000000462E+01
             1.3104000000000179E+01    4.4330000000000629E+00    3.3442000000000462E+01
             1.3104000000000179E+01    7.3890000000001033E+00    3.3442000000000462E+01
       &END COORD
       &VELOCITY
             0.0000000000000000E+00    0.0000000000000000E+00    0.0000000000000000E+00
             0.0000000000000000E+00    0.0000000000000000E+00    0.0000000000000000E+00
             0.0000000000000000E+00    0.0000000000000000E+00    0.0000000000000000E+00
             0.0000000000000000E+00    0.0000000000000000E+00    0.0000000000000000E+00
             0.0000000000000000E+00    0.0000000000000000E+00    0.0000000000000000E+00
             0.0000000000000000E+00    0.0000000000000000E+00    0.0000000000000000E+00
             0.0000000000000000E+00    0.0000000000000000E+00    0.0000000000000000E+00
             0.0000000000000000E+00    0.0000000000000000E+00    0.0000000000000000E+00
             0.0000000000000000E+00    0.0000000000000000E+00    0.0000000000000000E+00
             0.0000000000000000E+00    0.0000000000000000E+00    0.0000000000000000E+00
             0.0000000000000000E+00    0.0000000000000000E+00    0.0000000000000000E+00
             0.0000000000000000E+00    0.0000000000000000E+00    0.0000000000000000E+00
             0.0000000000000000E+00    0.0000000000000000E+00    0.0000000000000000E+00
             0.0000000000000000E+00    0.0000000000000000E+00    0.0000000000000000E+00
             0.0000000000000000E+00    0.0000000000000000E+00    0.0000000000000000E+00
             0.0000000000000000E+00    0.0000000000000000E+00    0.0000000000000000E+00
             0.0000000000000000E+00    0.0000000000000000E+00    0.0000000000000000E+00
             0.0000000000000000E+00    0.0000000000000000E+00    0.0000000000000000E+00
             0.0000000000000000E+00    0.0000000000000000E+00    0.0000000000000000E+00
             0.0000000000000000E+00    0.0000000000000000E+00    0.0000000000000000E+00
             0.0000000000000000E+00    0.0000000000000000E+00    0.0000000000000000E+00
             0.0000000000000000E+00    0.0000000000000000E+00    0.0000000000000000E+00
             0.0000000000000000E+00    0.0000000000000000E+00    0.0000000000000000E+00
             0.0000000000000000E+00    0.0000000000000000E+00    0.0000000000000000E+00
             0.0000000000000000E+00    0.0000000000000000E+00    0.0000000000000000E+00
             0.0000000000000000E+00    0.0000000000000000E+00    0.0000000000000000E+00
             0.0000000000000000E+00    0.0000000000000000E+00    0.0000000000000000E+00
             0.0000000000000000E+00    0.0000000000000000E+00    0.0000000000000000E+00
             0.0000000000000000E+00    0.0000000000000000E+00    0.0000000000000000E+00
             0.0000000000000000E+00    0.0000000000000000E+00    0.0000000000000000E+00
             0.0000000000000000E+00    0.0000000000000000E+00    0.0000000000000000E+00
             0.0000000000000000E+00    0.0000000000000000E+00    0.0000000000000000E+00
             0.0000000000000000E+00    0.0000000000000000E+00    0.0000000000000000E+00
             0.0000000000000000E+00    0.0000000000000000E+00    0.0000000000000000E+00
             0.0000000000000000E+00    0.0000000000000000E+00    0.0000000000000000E+00
             0.0000000000000000E+00    0.0000000000000000E+00    0.0000000000000000E+00
             0.0000000000000000E+00    0.0000000000000000E+00    0.0000000000000000E+00
             0.0000000000000000E+00    0.0000000000000000E+00    0.0000000000000000E+00
             0.0000000000000000E+00    0.0000000000000000E+00    0.0000000000000000E+00
             0.0000000000000000E+00    0.0000000000000000E+00    0.0000000000000000E+00
             0.0000000000000000E+00    0.0000000000000000E+00    0.0000000000000000E+00
             0.0000000000000000E+00    0.0000000000000000E+00    0.0000000000000000E+00
             0.0000000000000000E+00    0.0000000000000000E+00    0.0000000000000000E+00
             0.0000000000000000E+00    0.0000000000000000E+00    0.0000000000000000E+00
             0.0000000000000000E+00    0.0000000000000000E+00    0.0000000000000000E+00
             0.0000000000000000E+00    0.0000000000000000E+00    0.0000000000000000E+00
             0.0000000000000000E+00    0.0000000000000000E+00    0.0000000000000000E+00
             0.0000000000000000E+00    0.0000000000000000E+00    0.0000000000000000E+00
             0.0000000000000000E+00    0.0000000000000000E+00    0.0000000000000000E+00
             0.0000000000000000E+00    0.0000000000000000E+00    0.0000000000000000E+00
             0.0000000000000000E+00    0.0000000000000000E+00    0.0000000000000000E+00
             0.0000000000000000E+00    0.0000000000000000E+00    0.0000000000000000E+00
             0.0000000000000000E+00    0.0000000000000000E+00    0.0000000000000000E+00
             0.0000000000000000E+00    0.0000000000000000E+00    0.0000000000000000E+00
             0.0000000000000000E+00    0.0000000000000000E+00    0.0000000000000000E+00
             0.0000000000000000E+00    0.0000000000000000E+00    0.0000000000000000E+00
             0.0000000000000000E+00    0.0000000000000000E+00    0.0000000000000000E+00
             0.0000000000000000E+00    0.0000000000000000E+00    0.0000000000000000E+00
             0.0000000000000000E+00    0.0000000000000000E+00    0.0000000000000000E+00
             0.0000000000000000E+00    0.0000000000000000E+00    0.0000000000000000E+00
             0.0000000000000000E+00    0.0000000000000000E+00    0.0000000000000000E+00
             0.0000000000000000E+00    0.0000000000000000E+00    0.0000000000000000E+00
             0.0000000000000000E+00    0.0000000000000000E+00    0.0000000000000000E+00
             0.0000000000000000E+00    0.0000000000000000E+00    0.0000000000000000E+00
             0.0000000000000000E+00    0.0000000000000000E+00    0.0000000000000000E+00
             0.0000000000000000E+00    0.0000000000000000E+00    0.0000000000000000E+00
             0.0000000000000000E+00    0.0000000000000000E+00    0.0000000000000000E+00
             0.0000000000000000E+00    0.0000000000000000E+00    0.0000000000000000E+00
             0.0000000000000000E+00    0.0000000000000000E+00    0.0000000000000000E+00
             0.0000000000000000E+00    0.0000000000000000E+00    0.0000000000000000E+00
             0.0000000000000000E+00    0.0000000000000000E+00    0.0000000000000000E+00
             0.0000000000000000E+00    0.0000000000000000E+00    0.0000000000000000E+00
             0.0000000000000000E+00    0.0000000000000000E+00    0.0000000000000000E+00
             0.0000000000000000E+00    0.0000000000000000E+00    0.0000000000000000E+00
             0.0000000000000000E+00    0.0000000000000000E+00    0.0000000000000000E+00
             0.0000000000000000E+00    0.0000000000000000E+00    0.0000000000000000E+00
             0.0000000000000000E+00    0.0000000000000000E+00    0.0000000000000000E+00
             0.0000000000000000E+00    0.0000000000000000E+00    0.0000000000000000E+00
             0.0000000000000000E+00    0.0000000000000000E+00    0.0000000000000000E+00
             0.0000000000000000E+00    0.0000000000000000E+00    0.0000000000000000E+00
             0.0000000000000000E+00    0.0000000000000000E+00    0.0000000000000000E+00
             0.0000000000000000E+00    0.0000000000000000E+00    0.0000000000000000E+00
             0.0000000000000000E+00    0.0000000000000000E+00    0.0000000000000000E+00
             0.0000000000000000E+00    0.0000000000000000E+00    0.0000000000000000E+00
             0.0000000000000000E+00    0.0000000000000000E+00    0.0000000000000000E+00
             0.0000000000000000E+00    0.0000000000000000E+00    0.0000000000000000E+00
             0.0000000000000000E+00    0.0000000000000000E+00    0.0000000000000000E+00
             0.0000000000000000E+00    0.0000000000000000E+00    0.0000000000000000E+00
             0.0000000000000000E+00    0.0000000000000000E+00    0.0000000000000000E+00
             0.0000000000000000E+00    0.0000000000000000E+00    0.0000000000000000E+00
             0.0000000000000000E+00    0.0000000000000000E+00    0.0000000000000000E+00
             0.0000000000000000E+00    0.0000000000000000E+00    0.0000000000000000E+00
             0.0000000000000000E+00    0.0000000000000000E+00    0.0000000000000000E+00
             0.0000000000000000E+00    0.0000000000000000E+00    0.0000000000000000E+00
             0.0000000000000000E+00    0.0000000000000000E+00    0.0000000000000000E+00
             0.0000000000000000E+00    0.0000000000000000E+00    0.0000000000000000E+00
             0.0000000000000000E+00    0.0000000000000000E+00    0.0000000000000000E+00
             0.0000000000000000E+00    0.0000000000000000E+00    0.0000000000000000E+00
             0.0000000000000000E+00    0.0000000000000000E+00    0.0000000000000000E+00
             0.0000000000000000E+00    0.0000000000000000E+00    0.0000000000000000E+00
             0.0000000000000000E+00    0.0000000000000000E+00    0.0000000000000000E+00
             0.0000000000000000E+00    0.0000000000000000E+00    0.0000000000000000E+00
             0.0000000000000000E+00    0.0000000000000000E+00    0.0000000000000000E+00
             0.0000000000000000E+00    0.0000000000000000E+00    0.0000000000000000E+00
             0.0000000000000000E+00    0.0000000000000000E+00    0.0000000000000000E+00
             0.0000000000000000E+00    0.0000000000000000E+00    0.0000000000000000E+00
             0.0000000000000000E+00    0.0000000000000000E+00    0.0000000000000000E+00
             0.0000000000000000E+00    0.0000000000000000E+00    0.0000000000000000E+00
             0.0000000000000000E+00    0.0000000000000000E+00    0.0000000000000000E+00
             0.0000000000000000E+00    0.0000000000000000E+00    0.0000000000000000E+00
             0.0000000000000000E+00    0.0000000000000000E+00    0.0000000000000000E+00
             0.0000000000000000E+00    0.0000000000000000E+00    0.0000000000000000E+00
             0.0000000000000000E+00    0.0000000000000000E+00    0.0000000000000000E+00
             0.0000000000000000E+00    0.0000000000000000E+00    0.0000000000000000E+00
             0.0000000000000000E+00    0.0000000000000000E+00    0.0000000000000000E+00
             0.0000000000000000E+00    0.0000000000000000E+00    0.0000000000000000E+00
             0.0000000000000000E+00    0.0000000000000000E+00    0.0000000000000000E+00
             0.0000000000000000E+00    0.0000000000000000E+00    0.0000000000000000E+00
             0.0000000000000000E+00    0.0000000000000000E+00    0.0000000000000000E+00
             0.0000000000000000E+00    0.0000000000000000E+00    0.0000000000000000E+00
             0.0000000000000000E+00    0.0000000000000000E+00    0.0000000000000000E+00
             0.0000000000000000E+00    0.0000000000000000E+00    0.0000000000000000E+00
             0.0000000000000000E+00    0.0000000000000000E+00    0.0000000000000000E+00
             0.0000000000000000E+00    0.0000000000000000E+00    0.0000000000000000E+00
             0.0000000000000000E+00    0.0000000000000000E+00    0.0000000000000000E+00
             0.0000000000000000E+00    0.0000000000000000E+00    0.0000000000000000E+00
             0.0000000000000000E+00    0.0000000000000000E+00    0.0000000000000000E+00
             0.0000000000000000E+00    0.0000000000000000E+00    0.0000000000000000E+00
             0.0000000000000000E+00    0.0000000000000000E+00    0.0000000000000000E+00
             0.0000000000000000E+00    0.0000000000000000E+00    0.0000000000000000E+00
             0.0000000000000000E+00    0.0000000000000000E+00    0.0000000000000000E+00
             0.0000000000000000E+00    0.0000000000000000E+00    0.0000000000000000E+00
             0.0000000000000000E+00    0.0000000000000000E+00    0.0000000000000000E+00
             0.0000000000000000E+00    0.0000000000000000E+00    0.0000000000000000E+00
             0.0000000000000000E+00    0.0000000000000000E+00    0.0000000000000000E+00
             0.0000000000000000E+00    0.0000000000000000E+00    0.0000000000000000E+00
             0.0000000000000000E+00    0.0000000000000000E+00    0.0000000000000000E+00
             0.0000000000000000E+00    0.0000000000000000E+00    0.0000000000000000E+00
             0.0000000000000000E+00    0.0000000000000000E+00    0.0000000000000000E+00
             0.0000000000000000E+00    0.0000000000000000E+00    0.0000000000000000E+00
             0.0000000000000000E+00    0.0000000000000000E+00    0.0000000000000000E+00
             0.0000000000000000E+00    0.0000000000000000E+00    0.0000000000000000E+00
             0.0000000000000000E+00    0.0000000000000000E+00    0.0000000000000000E+00
             0.0000000000000000E+00    0.0000000000000000E+00    0.0000000000000000E+00
             0.0000000000000000E+00    0.0000000000000000E+00    0.0000000000000000E+00