 # Version information for this restart file 
 # current date 2024-01-13 00:23:06.189
 # current working dir /gpfs/home/cahart/transport/melamine/au_from-h2/ci-neb/ts1/dft_leads-sz_tip-dzvp_surf-dzvp_kpoints-2-4-20_replicas-5
 # Program compiled at                              Thu 21 Sep 19:20:17 BST 2023
 # Program compiled on                                           hx1-c12-login-1
 # Program compiled for                                                    local
 # Source code revision number                                       git:5518aa6
 &GLOBAL
   EXTENDED_FFT_LENGTHS  T
   PRINT_LEVEL  MEDIUM
   PROJECT_NAME 2_dft_wfn-r-0
   OUTPUT_FILE_NAME 2_dft_wfn-r-0.out
   RUN_TYPE  BAND
 &END GLOBAL
 &MOTION
   &BAND
     NPROC_REP  64
     BAND_TYPE  CI-NEB
     NUMBER_OF_REPLICA  5
     K_SPRING     5.0000000000000003E-02
     &CI_NEB
       NSTEPS_IT  5
     &END CI_NEB
     &OPTIMIZE_BAND
       OPT_TYPE  DIIS
       &DIIS
         MAX_STEPS  1000
       &END DIIS
     &END OPTIMIZE_BAND
     &REPLICA
       &COORD
             0.0000000000000000E+00    0.0000000000000000E+00    0.0000000000000000E+00
             0.0000000000000000E+00    2.9550000000000378E+00    0.0000000000000000E+00
             0.0000000000000000E+00    5.9110000000000742E+00    0.0000000000000000E+00
             2.9560000000000382E+00    0.0000000000000000E+00    0.0000000000000000E+00
             2.9560000000000382E+00    2.9550000000000378E+00    0.0000000000000000E+00
             2.9560000000000382E+00    5.9110000000000742E+00    0.0000000000000000E+00
             5.9120000000000763E+00    0.0000000000000000E+00    0.0000000000000000E+00
             5.9120000000000763E+00    2.9550000000000378E+00    0.0000000000000000E+00
             5.9120000000000763E+00    5.9110000000000742E+00    0.0000000000000000E+00
             8.6700000000001207E+00    0.0000000000000000E+00    0.0000000000000000E+00
             8.6700000000001207E+00    2.9550000000000378E+00    0.0000000000000000E+00
             8.6700000000001207E+00    5.9110000000000742E+00    0.0000000000000000E+00
             1.1626000000000158E+01    0.0000000000000000E+00    0.0000000000000000E+00
             1.1626000000000158E+01    2.9550000000000378E+00    0.0000000000000000E+00
             1.1626000000000158E+01    5.9110000000000742E+00    0.0000000000000000E+00
             1.4780000000000191E+00    1.4780000000000191E+00    2.0900000000000274E+00
             1.4780000000000191E+00    4.4330000000000602E+00    2.0900000000000274E+00
             1.4780000000000191E+00    7.3890000000001024E+00    2.0900000000000274E+00
             4.4340000000000588E+00    1.4780000000000191E+00    2.0900000000000274E+00
             4.4340000000000588E+00    4.4330000000000602E+00    2.0900000000000274E+00
             4.4340000000000588E+00    7.3890000000001024E+00    2.0900000000000274E+00
             7.1920000000000970E+00    1.4780000000000191E+00    2.0900000000000274E+00
             7.1920000000000970E+00    4.4330000000000602E+00    2.0900000000000274E+00
             7.1920000000000970E+00    7.3890000000001024E+00    2.0900000000000274E+00
             1.0148000000000135E+01    1.4780000000000191E+00    2.0900000000000274E+00
             1.0148000000000135E+01    4.4330000000000602E+00    2.0900000000000274E+00
             1.0148000000000135E+01    7.3890000000001024E+00    2.0900000000000274E+00
             1.3104000000000172E+01    1.4780000000000191E+00    2.0900000000000274E+00
             1.3104000000000172E+01    4.4330000000000602E+00    2.0900000000000274E+00
             1.3104000000000172E+01    7.3890000000001024E+00    2.0900000000000274E+00
             0.0000000000000000E+00    0.0000000000000000E+00    4.1800000000000548E+00
             0.0000000000000000E+00    2.9550000000000378E+00    4.1800000000000548E+00
             0.0000000000000000E+00    5.9110000000000742E+00    4.1800000000000548E+00
             2.9560000000000382E+00    0.0000000000000000E+00    4.1800000000000548E+00
             2.9560000000000382E+00    2.9550000000000378E+00    4.1800000000000548E+00
             2.9560000000000382E+00    5.9110000000000742E+00    4.1800000000000548E+00
             5.9120000000000763E+00    0.0000000000000000E+00    4.1800000000000548E+00
             5.9120000000000763E+00    2.9550000000000378E+00    4.1800000000000548E+00
             5.9120000000000763E+00    5.9110000000000742E+00    4.1800000000000548E+00
             8.6700000000001207E+00    0.0000000000000000E+00    4.1800000000000548E+00
             8.6700000000001207E+00    2.9550000000000378E+00    4.1800000000000548E+00
             8.6700000000001207E+00    5.9110000000000742E+00    4.1800000000000548E+00
             1.1626000000000158E+01    0.0000000000000000E+00    4.1800000000000548E+00
             1.1626000000000158E+01    2.9550000000000378E+00    4.1800000000000548E+00
             1.1626000000000158E+01    5.9110000000000742E+00    4.1800000000000548E+00
             1.4780000000000191E+00    1.4780000000000191E+00    6.2700000000000831E+00
             1.4780000000000191E+00    4.4330000000000602E+00    6.2700000000000831E+00
             1.4780000000000191E+00    7.3890000000001024E+00    6.2700000000000831E+00
             4.4340000000000588E+00    1.4780000000000191E+00    6.2700000000000831E+00
             4.4340000000000588E+00    4.4330000000000602E+00    6.2700000000000831E+00
             4.4340000000000588E+00    7.3890000000001024E+00    6.2700000000000831E+00
             7.1920000000000970E+00    1.4780000000000191E+00    6.2700000000000831E+00
             7.1920000000000970E+00    4.4330000000000602E+00    6.2700000000000831E+00
             7.1920000000000970E+00    7.3890000000001024E+00    6.2700000000000831E+00
             1.0148000000000135E+01    1.4780000000000191E+00    6.2700000000000831E+00
             1.0148000000000135E+01    4.4330000000000602E+00    6.2700000000000831E+00
             1.0148000000000135E+01    7.3890000000001024E+00    6.2700000000000831E+00
             1.3104000000000172E+01    1.4780000000000191E+00    6.2700000000000831E+00
             1.3104000000000172E+01    4.4330000000000602E+00    6.2700000000000831E+00
             1.3104000000000172E+01    7.3890000000001024E+00    6.2700000000000831E+00
             0.0000000000000000E+00    0.0000000000000000E+00    8.3600000000001096E+00
             0.0000000000000000E+00    2.9550000000000378E+00    8.3600000000001096E+00
             0.0000000000000000E+00    5.9110000000000742E+00    8.3600000000001096E+00
             2.9560000000000382E+00    0.0000000000000000E+00    8.3600000000001096E+00
             2.9560000000000382E+00    2.9550000000000378E+00    8.3600000000001096E+00
             2.9560000000000382E+00    5.9110000000000742E+00    8.3600000000001096E+00
             5.9120000000000763E+00    0.0000000000000000E+00    8.3600000000001096E+00
             5.9120000000000763E+00    2.9550000000000378E+00    8.3600000000001096E+00
             5.9120000000000763E+00    5.9110000000000742E+00    8.3600000000001096E+00
             8.6700000000001207E+00    0.0000000000000000E+00    8.3600000000001096E+00
             8.6700000000001207E+00    2.9550000000000378E+00    8.3600000000001096E+00
             8.6700000000001207E+00    5.9110000000000742E+00    8.3600000000001096E+00
             1.1626000000000158E+01    0.0000000000000000E+00    8.3600000000001096E+00
             1.1626000000000158E+01    2.9550000000000378E+00    8.3600000000001096E+00
             1.1626000000000158E+01    5.9110000000000742E+00    8.3600000000001096E+00
             1.4780000000000191E+00    1.4780000000000191E+00    1.0450000000000136E+01
             1.4780000000000191E+00    4.4330000000000602E+00    1.0450000000000136E+01
             1.4780000000000191E+00    7.3890000000001024E+00    1.0450000000000136E+01
             4.4340000000000588E+00    1.4780000000000191E+00    1.0450000000000136E+01
             4.4340000000000588E+00    4.4330000000000602E+00    1.0450000000000136E+01
             4.4340000000000588E+00    7.3890000000001024E+00    1.0450000000000136E+01
             7.1920000000000970E+00    1.4780000000000191E+00    1.0450000000000136E+01
             7.1920000000000970E+00    4.4330000000000602E+00    1.0450000000000136E+01
             7.1920000000000970E+00    7.3890000000001024E+00    1.0450000000000136E+01
             1.0148000000000135E+01    1.4780000000000191E+00    1.0450000000000136E+01
             1.0148000000000135E+01    4.4330000000000602E+00    1.0450000000000136E+01
             1.0148000000000135E+01    7.3890000000001024E+00    1.0450000000000136E+01
             1.3104000000000172E+01    1.4780000000000191E+00    1.0450000000000136E+01
             1.3104000000000172E+01    4.4330000000000602E+00    1.0450000000000136E+01
             1.3104000000000172E+01    7.3890000000001024E+00    1.0450000000000136E+01
             4.8554000000000714E+00    5.9119000000000801E+00    1.2031800000000162E+01
             9.5280000000001301E+00    5.9137000000000741E+00    1.2034000000000171E+01
             7.1920000000000970E+00    5.9340000000000810E+00    1.2040000000000157E+01
             4.0750319168000537E+00    5.9049488170000792E+00    1.2696844061800162E+01
             1.0293988349500129E+01    5.9062142779000757E+00    1.2716532694500183E+01
             6.0099999686000860E+00    5.9120523853000799E+00    1.2765819797400171E+01
             8.3750478948001152E+00    5.9129627335000770E+00    1.2760746495900170E+01
             8.4047327065001145E+00    5.8893877816000799E+00    1.4094060897200176E+01
             5.9788500869000814E+00    5.8882515165000759E+00    1.4094239568500196E+01
             7.1943473363000949E+00    5.8799164377000759E+00    1.4701118490300198E+01
             7.1912293097000966E+00    5.8521058221000812E+00    1.6050622658200229E+01
             6.3086348447000873E+00    5.8615539361000835E+00    1.6548439365000238E+01
             8.0709262665001074E+00    5.8621389354000746E+00    1.6553588809700223E+01
             7.3120000000000935E+00    5.9340000000000810E+00    2.1043000000000266E+01
             5.8130000000000788E+00    7.4340000000001005E+00    2.2992000000000328E+01
             8.8130000000001107E+00    4.4340000000000588E+00    2.2992000000000328E+01
             5.8130000000000788E+00    4.4330000000000602E+00    2.2992000000000328E+01
             8.8130000000001107E+00    7.4340000000001005E+00    2.2992000000000328E+01
             1.4780000000000191E+00    1.4780000000000191E+00    2.5082000000000299E+01
             1.4780000000000191E+00    4.4330000000000602E+00    2.5082000000000299E+01
             1.4780000000000191E+00    7.3890000000001024E+00    2.5082000000000299E+01
             4.4340000000000588E+00    1.4780000000000191E+00    2.5082000000000299E+01
             4.4340000000000588E+00    4.4330000000000602E+00    2.5082000000000299E+01
             4.4340000000000588E+00    7.3890000000001024E+00    2.5082000000000299E+01
             7.1920000000000970E+00    1.4780000000000191E+00    2.5082000000000299E+01
             7.1920000000000970E+00    4.4330000000000602E+00    2.5082000000000299E+01
             7.1920000000000970E+00    7.3890000000001024E+00    2.5082000000000299E+01
             1.0148000000000135E+01    1.4780000000000191E+00    2.5082000000000299E+01
             1.0148000000000135E+01    4.4330000000000602E+00    2.5082000000000299E+01
             1.0148000000000135E+01    7.3890000000001024E+00    2.5082000000000299E+01
             1.3104000000000172E+01    1.4780000000000191E+00    2.5082000000000299E+01
             1.3104000000000172E+01    4.4330000000000602E+00    2.5082000000000299E+01
             1.3104000000000172E+01    7.3890000000001024E+00    2.5082000000000299E+01
             0.0000000000000000E+00    0.0000000000000000E+00    2.7172000000000352E+01
             0.0000000000000000E+00    2.9550000000000378E+00    2.7172000000000352E+01
             0.0000000000000000E+00    5.9110000000000742E+00    2.7172000000000352E+01
             2.9560000000000382E+00    0.0000000000000000E+00    2.7172000000000352E+01
             2.9560000000000382E+00    2.9550000000000378E+00    2.7172000000000352E+01
             2.9560000000000382E+00    5.9110000000000742E+00    2.7172000000000352E+01
             5.9120000000000763E+00    0.0000000000000000E+00    2.7172000000000352E+01
             5.9120000000000763E+00    2.9550000000000378E+00    2.7172000000000352E+01
             5.9120000000000763E+00    5.9110000000000742E+00    2.7172000000000352E+01
             8.6700000000001207E+00    0.0000000000000000E+00    2.7172000000000352E+01
             8.6700000000001207E+00    2.9550000000000378E+00    2.7172000000000352E+01
             8.6700000000001207E+00    5.9110000000000742E+00    2.7172000000000352E+01
             1.1626000000000158E+01    0.0000000000000000E+00    2.7172000000000352E+01
             1.1626000000000158E+01    2.9550000000000378E+00    2.7172000000000352E+01
             1.1626000000000158E+01    5.9110000000000742E+00    2.7172000000000352E+01
             1.4780000000000191E+00    1.4780000000000191E+00    2.9262000000000359E+01
             1.4780000000000191E+00    4.4330000000000602E+00    2.9262000000000359E+01
             1.4780000000000191E+00    7.3890000000001024E+00    2.9262000000000359E+01
             4.4340000000000588E+00    1.4780000000000191E+00    2.9262000000000359E+01
             4.4340000000000588E+00    4.4330000000000602E+00    2.9262000000000359E+01
             4.4340000000000588E+00    7.3890000000001024E+00    2.9262000000000359E+01
             7.1920000000000970E+00    1.4780000000000191E+00    2.9262000000000359E+01
             7.1920000000000970E+00    4.4330000000000602E+00    2.9262000000000359E+01
             7.1920000000000970E+00    7.3890000000001024E+00    2.9262000000000359E+01
             1.0148000000000135E+01    1.4780000000000191E+00    2.9262000000000359E+01
             1.0148000000000135E+01    4.4330000000000602E+00    2.9262000000000359E+01
             1.0148000000000135E+01    7.3890000000001024E+00    2.9262000000000359E+01
             1.3104000000000172E+01    1.4780000000000191E+00    2.9262000000000359E+01
             1.3104000000000172E+01    4.4330000000000602E+00    2.9262000000000359E+01
             1.3104000000000172E+01    7.3890000000001024E+00    2.9262000000000359E+01
             0.0000000000000000E+00    0.0000000000000000E+00    3.1352000000000416E+01
             0.0000000000000000E+00    2.9550000000000378E+00    3.1352000000000416E+01
             0.0000000000000000E+00    5.9110000000000742E+00    3.1352000000000416E+01
             2.9560000000000382E+00    0.0000000000000000E+00    3.1352000000000416E+01
             2.9560000000000382E+00    2.9550000000000378E+00    3.1352000000000416E+01
             2.9560000000000382E+00    5.9110000000000742E+00    3.1352000000000416E+01
             5.9120000000000763E+00    0.0000000000000000E+00    3.1352000000000416E+01
             5.9120000000000763E+00    2.9550000000000378E+00    3.1352000000000416E+01
             5.9120000000000763E+00    5.9110000000000742E+00    3.1352000000000416E+01
             8.6700000000001207E+00    0.0000000000000000E+00    3.1352000000000416E+01
             8.6700000000001207E+00    2.9550000000000378E+00    3.1352000000000416E+01
             8.6700000000001207E+00    5.9110000000000742E+00    3.1352000000000416E+01
             1.1626000000000158E+01    0.0000000000000000E+00    3.1352000000000416E+01
             1.1626000000000158E+01    2.9550000000000378E+00    3.1352000000000416E+01
             1.1626000000000158E+01    5.9110000000000742E+00    3.1352000000000416E+01
             1.4780000000000191E+00    1.4780000000000191E+00    3.3442000000000455E+01
             1.4780000000000191E+00    4.4330000000000602E+00    3.3442000000000455E+01
             1.4780000000000191E+00    7.3890000000001024E+00    3.3442000000000455E+01
             4.4340000000000588E+00    1.4780000000000191E+00    3.3442000000000455E+01
             4.4340000000000588E+00    4.4330000000000602E+00    3.3442000000000455E+01
             4.4340000000000588E+00    7.3890000000001024E+00    3.3442000000000455E+01
             7.1920000000000970E+00    1.4780000000000191E+00    3.3442000000000455E+01
             7.1920000000000970E+00    4.4330000000000602E+00    3.3442000000000455E+01
             7.1920000000000970E+00    7.3890000000001024E+00    3.3442000000000455E+01
             1.0148000000000135E+01    1.4780000000000191E+00    3.3442000000000455E+01
             1.0148000000000135E+01    4.4330000000000602E+00    3.3442000000000455E+01
             1.0148000000000135E+01    7.3890000000001024E+00    3.3442000000000455E+01
             1.3104000000000172E+01    1.4780000000000191E+00    3.3442000000000455E+01
             1.3104000000000172E+01    4.4330000000000602E+00    3.3442000000000455E+01
             1.3104000000000172E+01    7.3890000000001024E+00    3.3442000000000455E+01
       &END COORD
       &VELOCITY
             0.0000000000000000E+00    0.0000000000000000E+00    0.0000000000000000E+00
             0.0000000000000000E+00    0.0000000000000000E+00    0.0000000000000000E+00
             0.0000000000000000E+00    0.0000000000000000E+00    0.0000000000000000E+00
             0.0000000000000000E+00    0.0000000000000000E+00    0.0000000000000000E+00
             0.0000000000000000E+00    0.0000000000000000E+00    0.0000000000000000E+00
             0.0000000000000000E+00    0.0000000000000000E+00    0.0000000000000000E+00
             0.0000000000000000E+00    0.0000000000000000E+00    0.0000000000000000E+00
             0.0000000000000000E+00    0.0000000000000000E+00    0.0000000000000000E+00
             0.0000000000000000E+00    0.0000000000000000E+00    0.0000000000000000E+00
             0.0000000000000000E+00    0.0000000000000000E+00    0.0000000000000000E+00
             0.0000000000000000E+00    0.0000000000000000E+00    0.0000000000000000E+00
             0.0000000000000000E+00    0.0000000000000000E+00    0.0000000000000000E+00
             0.0000000000000000E+00    0.0000000000000000E+00    0.0000000000000000E+00
             0.0000000000000000E+00    0.0000000000000000E+00    0.0000000000000000E+00
             0.0000000000000000E+00    0.0000000000000000E+00    0.0000000000000000E+00
             0.0000000000000000E+00    0.0000000000000000E+00    0.0000000000000000E+00
             0.0000000000000000E+00    0.0000000000000000E+00    0.0000000000000000E+00
             0.0000000000000000E+00    0.0000000000000000E+00    0.0000000000000000E+00
             0.0000000000000000E+00    0.0000000000000000E+00    0.0000000000000000E+00
             0.0000000000000000E+00    0.0000000000000000E+00    0.0000000000000000E+00
             0.0000000000000000E+00    0.0000000000000000E+00    0.0000000000000000E+00
             0.0000000000000000E+00    0.0000000000000000E+00    0.0000000000000000E+00
             0.0000000000000000E+00    0.0000000000000000E+00    0.0000000000000000E+00
             0.0000000000000000E+00    0.0000000000000000E+00    0.0000000000000000E+00
             0.0000000000000000E+00    0.0000000000000000E+00    0.0000000000000000E+00
             0.0000000000000000E+00    0.0000000000000000E+00    0.0000000000000000E+00
             0.0000000000000000E+00    0.0000000000000000E+00    0.0000000000000000E+00
             0.0000000000000000E+00    0.0000000000000000E+00    0.0000000000000000E+00
             0.0000000000000000E+00    0.0000000000000000E+00    0.0000000000000000E+00
             0.0000000000000000E+00    0.0000000000000000E+00    0.0000000000000000E+00
             0.0000000000000000E+00    0.0000000000000000E+00    0.0000000000000000E+00
             0.0000000000000000E+00    0.0000000000000000E+00    0.0000000000000000E+00
             0.0000000000000000E+00    0.0000000000000000E+00    0.0000000000000000E+00
             0.0000000000000000E+00    0.0000000000000000E+00    0.0000000000000000E+00
             0.0000000000000000E+00    0.0000000000000000E+00    0.0000000000000000E+00
             0.0000000000000000E+00    0.0000000000000000E+00    0.0000000000000000E+00
             0.0000000000000000E+00    0.0000000000000000E+00    0.0000000000000000E+00
             0.0000000000000000E+00    0.0000000000000000E+00    0.0000000000000000E+00
             0.0000000000000000E+00    0.0000000000000000E+00    0.0000000000000000E+00
             0.0000000000000000E+00    0.0000000000000000E+00    0.0000000000000000E+00
             0.0000000000000000E+00    0.0000000000000000E+00    0.0000000000000000E+00
             0.0000000000000000E+00    0.0000000000000000E+00    0.0000000000000000E+00
             0.0000000000000000E+00    0.0000000000000000E+00    0.0000000000000000E+00
             0.0000000000000000E+00    0.0000000000000000E+00    0.0000000000000000E+00
             0.0000000000000000E+00    0.0000000000000000E+00    0.0000000000000000E+00
             0.0000000000000000E+00    0.0000000000000000E+00    0.0000000000000000E+00
             0.0000000000000000E+00    0.0000000000000000E+00    0.0000000000000000E+00
             0.0000000000000000E+00    0.0000000000000000E+00    0.0000000000000000E+00
             0.0000000000000000E+00    0.0000000000000000E+00    0.0000000000000000E+00
             0.0000000000000000E+00    0.0000000000000000E+00    0.0000000000000000E+00
             0.0000000000000000E+00    0.0000000000000000E+00    0.0000000000000000E+00
             0.0000000000000000E+00    0.0000000000000000E+00    0.0000000000000000E+00
             0.0000000000000000E+00    0.0000000000000000E+00    0.0000000000000000E+00
             0.0000000000000000E+00    0.0000000000000000E+00    0.0000000000000000E+00
             0.0000000000000000E+00    0.0000000000000000E+00    0.0000000000000000E+00
             0.0000000000000000E+00    0.0000000000000000E+00    0.0000000000000000E+00
             0.0000000000000000E+00    0.0000000000000000E+00    0.0000000000000000E+00
             0.0000000000000000E+00    0.0000000000000000E+00    0.0000000000000000E+00
             0.0000000000000000E+00    0.0000000000000000E+00    0.0000000000000000E+00
             0.0000000000000000E+00    0.0000000000000000E+00    0.0000000000000000E+00
             0.0000000000000000E+00    0.0000000000000000E+00    0.0000000000000000E+00
             0.0000000000000000E+00    0.0000000000000000E+00    0.0000000000000000E+00
             0.0000000000000000E+00    0.0000000000000000E+00    0.0000000000000000E+00
             0.0000000000000000E+00    0.0000000000000000E+00    0.0000000000000000E+00
             0.0000000000000000E+00    0.0000000000000000E+00    0.0000000000000000E+00
             0.0000000000000000E+00    0.0000000000000000E+00    0.0000000000000000E+00
             0.0000000000000000E+00    0.0000000000000000E+00    0.0000000000000000E+00
             0.0000000000000000E+00    0.0000000000000000E+00    0.0000000000000000E+00
             0.0000000000000000E+00    0.0000000000000000E+00    0.0000000000000000E+00
             0.0000000000000000E+00    0.0000000000000000E+00    0.0000000000000000E+00
             0.0000000000000000E+00    0.0000000000000000E+00    0.0000000000000000E+00
             0.0000000000000000E+00    0.0000000000000000E+00    0.0000000000000000E+00
             0.0000000000000000E+00    0.0000000000000000E+00    0.0000000000000000E+00
             0.0000000000000000E+00    0.0000000000000000E+00    0.0000000000000000E+00
             0.0000000000000000E+00    0.0000000000000000E+00    0.0000000000000000E+00
             0.0000000000000000E+00    0.0000000000000000E+00    0.0000000000000000E+00
             0.0000000000000000E+00    0.0000000000000000E+00    0.0000000000000000E+00
             0.0000000000000000E+00    0.0000000000000000E+00    0.0000000000000000E+00
             0.0000000000000000E+00    0.0000000000000000E+00    0.0000000000000000E+00
             0.0000000000000000E+00    0.0000000000000000E+00    0.0000000000000000E+00
             0.0000000000000000E+00    0.0000000000000000E+00    0.0000000000000000E+00
             0.0000000000000000E+00    0.0000000000000000E+00    0.0000000000000000E+00
             0.0000000000000000E+00    0.0000000000000000E+00    0.0000000000000000E+00
             0.0000000000000000E+00    0.0000000000000000E+00    0.0000000000000000E+00
             0.0000000000000000E+00    0.0000000000000000E+00    0.0000000000000000E+00
             0.0000000000000000E+00    0.0000000000000000E+00    0.0000000000000000E+00
             0.0000000000000000E+00    0.0000000000000000E+00    0.0000000000000000E+00
             0.0000000000000000E+00    0.0000000000000000E+00    0.0000000000000000E+00
             0.0000000000000000E+00    0.0000000000000000E+00    0.0000000000000000E+00
             0.0000000000000000E+00    0.0000000000000000E+00    0.0000000000000000E+00
             0.0000000000000000E+00    0.0000000000000000E+00    0.0000000000000000E+00
             0.0000000000000000E+00    0.0000000000000000E+00    0.0000000000000000E+00
             0.0000000000000000E+00    0.0000000000000000E+00    0.0000000000000000E+00
             0.0000000000000000E+00    0.0000000000000000E+00    0.0000000000000000E+00
             0.0000000000000000E+00    0.0000000000000000E+00    0.0000000000000000E+00
             0.0000000000000000E+00    0.0000000000000000E+00    0.0000000000000000E+00
             0.0000000000000000E+00    0.0000000000000000E+00    0.0000000000000000E+00
             0.0000000000000000E+00    0.0000000000000000E+00    0.0000000000000000E+00
             0.0000000000000000E+00    0.0000000000000000E+00    0.0000000000000000E+00
             0.0000000000000000E+00    0.0000000000000000E+00    0.0000000000000000E+00
             0.0000000000000000E+00    0.0000000000000000E+00    0.0000000000000000E+00
             0.0000000000000000E+00    0.0000000000000000E+00    0.0000000000000000E+00
             0.0000000000000000E+00    0.0000000000000000E+00    0.0000000000000000E+00
             0.0000000000000000E+00    0.0000000000000000E+00    0.0000000000000000E+00
             0.0000000000000000E+00    0.0000000000000000E+00    0.0000000000000000E+00
             0.0000000000000000E+00    0.0000000000000000E+00    0.0000000000000000E+00
             0.0000000000000000E+00    0.0000000000000000E+00    0.0000000000000000E+00
             0.0000000000000000E+00    0.0000000000000000E+00    0.0000000000000000E+00
             0.0000000000000000E+00    0.0000000000000000E+00    0.0000000000000000E+00
             0.0000000000000000E+00    0.0000000000000000E+00    0.0000000000000000E+00
             0.0000000000000000E+00    0.0000000000000000E+00    0.0000000000000000E+00
             0.0000000000000000E+00    0.0000000000000000E+00    0.0000000000000000E+00
             0.0000000000000000E+00    0.0000000000000000E+00    0.0000000000000000E+00
             0.0000000000000000E+00    0.0000000000000000E+00    0.0000000000000000E+00
             0.0000000000000000E+00    0.0000000000000000E+00    0.0000000000000000E+00
             0.0000000000000000E+00    0.0000000000000000E+00    0.0000000000000000E+00
             0.0000000000000000E+00    0.0000000000000000E+00    0.0000000000000000E+00
             0.0000000000000000E+00    0.0000000000000000E+00    0.0000000000000000E+00
             0.0000000000000000E+00    0.0000000000000000E+00    0.0000000000000000E+00
             0.0000000000000000E+00    0.0000000000000000E+00    0.0000000000000000E+00
             0.0000000000000000E+00    0.0000000000000000E+00    0.0000000000000000E+00
             0.0000000000000000E+00    0.0000000000000000E+00    0.0000000000000000E+00
             0.0000000000000000E+00    0.0000000000000000E+00    0.0000000000000000E+00
             0.0000000000000000E+00    0.0000000000000000E+00    0.0000000000000000E+00
             0.0000000000000000E+00    0.0000000000000000E+00    0.0000000000000000E+00
             0.0000000000000000E+00    0.0000000000000000E+00    0.0000000000000000E+00
             0.0000000000000000E+00    0.0000000000000000E+00    0.0000000000000000E+00
             0.0000000000000000E+00    0.0000000000000000E+00    0.0000000000000000E+00
             0.0000000000000000E+00    0.0000000000000000E+00    0.0000000000000000E+00
             0.0000000000000000E+00    0.0000000000000000E+00    0.0000000000000000E+00
             0.0000000000000000E+00    0.0000000000000000E+00    0.0000000000000000E+00
             0.0000000000000000E+00    0.0000000000000000E+00    0.0000000000000000E+00
             0.0000000000000000E+00    0.0000000000000000E+00    0.0000000000000000E+00
             0.0000000000000000E+00    0.0000000000000000E+00    0.0000000000000000E+00
             0.0000000000000000E+00    0.0000000000000000E+00    0.0000000000000000E+00
             0.0000000000000000E+00    0.0000000000000000E+00    0.0000000000000000E+00
             0.0000000000000000E+00    0.0000000000000000E+00    0.0000000000000000E+00
             0.0000000000000000E+00    0.0000000000000000E+00    0.0000000000000000E+00
             0.0000000000000000E+00    0.0000000000000000E+00    0.0000000000000000E+00
             0.0000000000000000E+00    0.0000000000000000E+00    0.0000000000000000E+00
             0.0000000000000000E+00    0.0000000000000000E+00    0.0000000000000000E+00
             0.0000000000000000E+00    0.0000000000000000E+00    0.0000000000000000E+00
             0.0000000000000000E+00    0.0000000000000000E+00    0.0000000000000000E+00
             0.0000000000000000E+00    0.0000000000000000E+00    0.0000000000000000E+00
             0.0000000000000000E+00    0.0000000000000000E+00    0.0000000000000000E+00