 # Version information for this restart file 
 # current date 2024-01-12 22:55:24.070
 # current working dir /gpfs/home/cahart/transport/melamine/au_from-h2/ci-neb/ts1/dft_leads-sz_tip-dzvp_surf-dzvp_kpoints-2-4-20_replicas-5
 # Program compiled at                              Thu 21 Sep 19:20:17 BST 2023
 # Program compiled on                                           hx1-c12-login-1
 # Program compiled for                                                    local
 # Source code revision number                                       git:5518aa6
 &GLOBAL
   EXTENDED_FFT_LENGTHS  T
   PRINT_LEVEL  MEDIUM
   PROJECT_NAME 2_dft_wfn-r-0
   OUTPUT_FILE_NAME 2_dft_wfn-r-0.out
   RUN_TYPE  BAND
 &END GLOBAL
 &MOTION
   &BAND
     NPROC_REP  64
     BAND_TYPE  CI-NEB
     NUMBER_OF_REPLICA  5
     K_SPRING     5.0000000000000003E-02
     &CI_NEB
       NSTEPS_IT  5
     &END CI_NEB
     &OPTIMIZE_BAND
       OPT_TYPE  DIIS
       &DIIS
         MAX_STEPS  1000
       &END DIIS
     &END OPTIMIZE_BAND
     &REPLICA
       &COORD
             0.0000000000000000E+00    0.0000000000000000E+00    0.0000000000000000E+00
             0.0000000000000000E+00    2.9550000000000285E+00    0.0000000000000000E+00
             0.0000000000000000E+00    5.9110000000000573E+00    0.0000000000000000E+00
             2.9560000000000293E+00    0.0000000000000000E+00    0.0000000000000000E+00
             2.9560000000000293E+00    2.9550000000000285E+00    0.0000000000000000E+00
             2.9560000000000293E+00    5.9110000000000573E+00    0.0000000000000000E+00
             5.9120000000000585E+00    0.0000000000000000E+00    0.0000000000000000E+00
             5.9120000000000585E+00    2.9550000000000285E+00    0.0000000000000000E+00
             5.9120000000000585E+00    5.9110000000000573E+00    0.0000000000000000E+00
             8.6700000000000941E+00    0.0000000000000000E+00    0.0000000000000000E+00
             8.6700000000000941E+00    2.9550000000000285E+00    0.0000000000000000E+00
             8.6700000000000941E+00    5.9110000000000573E+00    0.0000000000000000E+00
             1.1626000000000118E+01    0.0000000000000000E+00    0.0000000000000000E+00
             1.1626000000000118E+01    2.9550000000000285E+00    0.0000000000000000E+00
             1.1626000000000118E+01    5.9110000000000573E+00    0.0000000000000000E+00
             1.4780000000000146E+00    1.4780000000000146E+00    2.0900000000000212E+00
             1.4780000000000146E+00    4.4330000000000478E+00    2.0900000000000212E+00
             1.4780000000000146E+00    7.3890000000000793E+00    2.0900000000000212E+00
             4.4340000000000437E+00    1.4780000000000146E+00    2.0900000000000212E+00
             4.4340000000000437E+00    4.4330000000000478E+00    2.0900000000000212E+00
             4.4340000000000437E+00    7.3890000000000793E+00    2.0900000000000212E+00
             7.1920000000000739E+00    1.4780000000000146E+00    2.0900000000000212E+00
             7.1920000000000739E+00    4.4330000000000478E+00    2.0900000000000212E+00
             7.1920000000000739E+00    7.3890000000000793E+00    2.0900000000000212E+00
             1.0148000000000103E+01    1.4780000000000146E+00    2.0900000000000212E+00
             1.0148000000000103E+01    4.4330000000000478E+00    2.0900000000000212E+00
             1.0148000000000103E+01    7.3890000000000793E+00    2.0900000000000212E+00
             1.3104000000000127E+01    1.4780000000000146E+00    2.0900000000000212E+00
             1.3104000000000127E+01    4.4330000000000478E+00    2.0900000000000212E+00
             1.3104000000000127E+01    7.3890000000000793E+00    2.0900000000000212E+00
             0.0000000000000000E+00    0.0000000000000000E+00    4.1800000000000423E+00
             0.0000000000000000E+00    2.9550000000000285E+00    4.1800000000000423E+00
             0.0000000000000000E+00    5.9110000000000573E+00    4.1800000000000423E+00
             2.9560000000000293E+00    0.0000000000000000E+00    4.1800000000000423E+00
             2.9560000000000293E+00    2.9550000000000285E+00    4.1800000000000423E+00
             2.9560000000000293E+00    5.9110000000000573E+00    4.1800000000000423E+00
             5.9120000000000585E+00    0.0000000000000000E+00    4.1800000000000423E+00
             5.9120000000000585E+00    2.9550000000000285E+00    4.1800000000000423E+00
             5.9120000000000585E+00    5.9110000000000573E+00    4.1800000000000423E+00
             8.6700000000000941E+00    0.0000000000000000E+00    4.1800000000000423E+00
             8.6700000000000941E+00    2.9550000000000285E+00    4.1800000000000423E+00
             8.6700000000000941E+00    5.9110000000000573E+00    4.1800000000000423E+00
             1.1626000000000118E+01    0.0000000000000000E+00    4.1800000000000423E+00
             1.1626000000000118E+01    2.9550000000000285E+00    4.1800000000000423E+00
             1.1626000000000118E+01    5.9110000000000573E+00    4.1800000000000423E+00
             1.4780000000000146E+00    1.4780000000000146E+00    6.2700000000000626E+00
             1.4780000000000146E+00    4.4330000000000478E+00    6.2700000000000626E+00
             1.4780000000000146E+00    7.3890000000000793E+00    6.2700000000000626E+00
             4.4340000000000437E+00    1.4780000000000146E+00    6.2700000000000626E+00
             4.4340000000000437E+00    4.4330000000000478E+00    6.2700000000000626E+00
             4.4340000000000437E+00    7.3890000000000793E+00    6.2700000000000626E+00
             7.1920000000000739E+00    1.4780000000000146E+00    6.2700000000000626E+00
             7.1920000000000739E+00    4.4330000000000478E+00    6.2700000000000626E+00
             7.1920000000000739E+00    7.3890000000000793E+00    6.2700000000000626E+00
             1.0148000000000103E+01    1.4780000000000146E+00    6.2700000000000626E+00
             1.0148000000000103E+01    4.4330000000000478E+00    6.2700000000000626E+00
             1.0148000000000103E+01    7.3890000000000793E+00    6.2700000000000626E+00
             1.3104000000000127E+01    1.4780000000000146E+00    6.2700000000000626E+00
             1.3104000000000127E+01    4.4330000000000478E+00    6.2700000000000626E+00
             1.3104000000000127E+01    7.3890000000000793E+00    6.2700000000000626E+00
             0.0000000000000000E+00    0.0000000000000000E+00    8.3600000000000847E+00
             0.0000000000000000E+00    2.9550000000000285E+00    8.3600000000000847E+00
             0.0000000000000000E+00    5.9110000000000573E+00    8.3600000000000847E+00
             2.9560000000000293E+00    0.0000000000000000E+00    8.3600000000000847E+00
             2.9560000000000293E+00    2.9550000000000285E+00    8.3600000000000847E+00
             2.9560000000000293E+00    5.9110000000000573E+00    8.3600000000000847E+00
             5.9120000000000585E+00    0.0000000000000000E+00    8.3600000000000847E+00
             5.9120000000000585E+00    2.9550000000000285E+00    8.3600000000000847E+00
             5.9120000000000585E+00    5.9110000000000573E+00    8.3600000000000847E+00
             8.6700000000000941E+00    0.0000000000000000E+00    8.3600000000000847E+00
             8.6700000000000941E+00    2.9550000000000285E+00    8.3600000000000847E+00
             8.6700000000000941E+00    5.9110000000000573E+00    8.3600000000000847E+00
             1.1626000000000118E+01    0.0000000000000000E+00    8.3600000000000847E+00
             1.1626000000000118E+01    2.9550000000000285E+00    8.3600000000000847E+00
             1.1626000000000118E+01    5.9110000000000573E+00    8.3600000000000847E+00
             1.4780000000000146E+00    1.4780000000000146E+00    1.0450000000000104E+01
             1.4780000000000146E+00    4.4330000000000478E+00    1.0450000000000104E+01
             1.4780000000000146E+00    7.3890000000000793E+00    1.0450000000000104E+01
             4.4340000000000437E+00    1.4780000000000146E+00    1.0450000000000104E+01
             4.4340000000000437E+00    4.4330000000000478E+00    1.0450000000000104E+01
             4.4340000000000437E+00    7.3890000000000793E+00    1.0450000000000104E+01
             7.1920000000000739E+00    1.4780000000000146E+00    1.0450000000000104E+01
             7.1920000000000739E+00    4.4330000000000478E+00    1.0450000000000104E+01
             7.1920000000000739E+00    7.3890000000000793E+00    1.0450000000000104E+01
             1.0148000000000103E+01    1.4780000000000146E+00    1.0450000000000104E+01
             1.0148000000000103E+01    4.4330000000000478E+00    1.0450000000000104E+01
             1.0148000000000103E+01    7.3890000000000793E+00    1.0450000000000104E+01
             1.3104000000000127E+01    1.4780000000000146E+00    1.0450000000000104E+01
             1.3104000000000127E+01    4.4330000000000478E+00    1.0450000000000104E+01
             1.3104000000000127E+01    7.3890000000000793E+00    1.0450000000000104E+01
             4.8554000000000554E+00    5.9119000000000623E+00    1.2031800000000123E+01
             9.5280000000000999E+00    5.9137000000000581E+00    1.2034000000000130E+01
             7.1920000000000739E+00    5.9340000000000641E+00    1.2040000000000120E+01
             4.0750319168000413E+00    5.9049488170000597E+00    1.2696844061800123E+01
             1.0293988349500099E+01    5.9062142779000570E+00    1.2716532694500140E+01
             6.0099999686000674E+00    5.9120523853000622E+00    1.2765819797400130E+01
             8.3750478948000850E+00    5.9129627335000592E+00    1.2760746495900126E+01
             8.4047327065000914E+00    5.8893877816000595E+00    1.4094060897200132E+01
             5.9788500869000636E+00    5.8882515165000564E+00    1.4094239568500150E+01
             7.1943473363000736E+00    5.8799164377000572E+00    1.4701118490300153E+01
             7.1912293097000735E+00    5.8521058221000608E+00    1.6050622658200179E+01
             6.3086348447000669E+00    5.8615539361000630E+00    1.6548439365000181E+01
             8.0709262665000843E+00    5.8621389354000586E+00    1.6553588809700170E+01
             7.3120000000000696E+00    5.9340000000000641E+00    2.1043000000000202E+01
             5.8130000000000592E+00    7.4340000000000783E+00    2.2992000000000253E+01
             8.8130000000000841E+00    4.4340000000000437E+00    2.2992000000000253E+01
             5.8130000000000592E+00    4.4330000000000478E+00    2.2992000000000253E+01
             8.8130000000000841E+00    7.4340000000000783E+00    2.2992000000000253E+01
             1.4780000000000146E+00    1.4780000000000146E+00    2.5082000000000225E+01
             1.4780000000000146E+00    4.4330000000000478E+00    2.5082000000000225E+01
             1.4780000000000146E+00    7.3890000000000793E+00    2.5082000000000225E+01
             4.4340000000000437E+00    1.4780000000000146E+00    2.5082000000000225E+01
             4.4340000000000437E+00    4.4330000000000478E+00    2.5082000000000225E+01
             4.4340000000000437E+00    7.3890000000000793E+00    2.5082000000000225E+01
             7.1920000000000739E+00    1.4780000000000146E+00    2.5082000000000225E+01
             7.1920000000000739E+00    4.4330000000000478E+00    2.5082000000000225E+01
             7.1920000000000739E+00    7.3890000000000793E+00    2.5082000000000225E+01
             1.0148000000000103E+01    1.4780000000000146E+00    2.5082000000000225E+01
             1.0148000000000103E+01    4.4330000000000478E+00    2.5082000000000225E+01
             1.0148000000000103E+01    7.3890000000000793E+00    2.5082000000000225E+01
             1.3104000000000127E+01    1.4780000000000146E+00    2.5082000000000225E+01
             1.3104000000000127E+01    4.4330000000000478E+00    2.5082000000000225E+01
             1.3104000000000127E+01    7.3890000000000793E+00    2.5082000000000225E+01
             0.0000000000000000E+00    0.0000000000000000E+00    2.7172000000000271E+01
             0.0000000000000000E+00    2.9550000000000285E+00    2.7172000000000271E+01
             0.0000000000000000E+00    5.9110000000000573E+00    2.7172000000000271E+01
             2.9560000000000293E+00    0.0000000000000000E+00    2.7172000000000271E+01
             2.9560000000000293E+00    2.9550000000000285E+00    2.7172000000000271E+01
             2.9560000000000293E+00    5.9110000000000573E+00    2.7172000000000271E+01
             5.9120000000000585E+00    0.0000000000000000E+00    2.7172000000000271E+01
             5.9120000000000585E+00    2.9550000000000285E+00    2.7172000000000271E+01
             5.9120000000000585E+00    5.9110000000000573E+00    2.7172000000000271E+01
             8.6700000000000941E+00    0.0000000000000000E+00    2.7172000000000271E+01
             8.6700000000000941E+00    2.9550000000000285E+00    2.7172000000000271E+01
             8.6700000000000941E+00    5.9110000000000573E+00    2.7172000000000271E+01
             1.1626000000000118E+01    0.0000000000000000E+00    2.7172000000000271E+01
             1.1626000000000118E+01    2.9550000000000285E+00    2.7172000000000271E+01
             1.1626000000000118E+01    5.9110000000000573E+00    2.7172000000000271E+01
             1.4780000000000146E+00    1.4780000000000146E+00    2.9262000000000274E+01
             1.4780000000000146E+00    4.4330000000000478E+00    2.9262000000000274E+01
             1.4780000000000146E+00    7.3890000000000793E+00    2.9262000000000274E+01
             4.4340000000000437E+00    1.4780000000000146E+00    2.9262000000000274E+01
             4.4340000000000437E+00    4.4330000000000478E+00    2.9262000000000274E+01
             4.4340000000000437E+00    7.3890000000000793E+00    2.9262000000000274E+01
             7.1920000000000739E+00    1.4780000000000146E+00    2.9262000000000274E+01
             7.1920000000000739E+00    4.4330000000000478E+00    2.9262000000000274E+01
             7.1920000000000739E+00    7.3890000000000793E+00    2.9262000000000274E+01
             1.0148000000000103E+01    1.4780000000000146E+00    2.9262000000000274E+01
             1.0148000000000103E+01    4.4330000000000478E+00    2.9262000000000274E+01
             1.0148000000000103E+01    7.3890000000000793E+00    2.9262000000000274E+01
             1.3104000000000127E+01    1.4780000000000146E+00    2.9262000000000274E+01
             1.3104000000000127E+01    4.4330000000000478E+00    2.9262000000000274E+01
             1.3104000000000127E+01    7.3890000000000793E+00    2.9262000000000274E+01
             0.0000000000000000E+00    0.0000000000000000E+00    3.1352000000000313E+01
             0.0000000000000000E+00    2.9550000000000285E+00    3.1352000000000313E+01
             0.0000000000000000E+00    5.9110000000000573E+00    3.1352000000000313E+01
             2.9560000000000293E+00    0.0000000000000000E+00    3.1352000000000313E+01
             2.9560000000000293E+00    2.9550000000000285E+00    3.1352000000000313E+01
             2.9560000000000293E+00    5.9110000000000573E+00    3.1352000000000313E+01
             5.9120000000000585E+00    0.0000000000000000E+00    3.1352000000000313E+01
             5.9120000000000585E+00    2.9550000000000285E+00    3.1352000000000313E+01
             5.9120000000000585E+00    5.9110000000000573E+00    3.1352000000000313E+01
             8.6700000000000941E+00    0.0000000000000000E+00    3.1352000000000313E+01
             8.6700000000000941E+00    2.9550000000000285E+00    3.1352000000000313E+01
             8.6700000000000941E+00    5.9110000000000573E+00    3.1352000000000313E+01
             1.1626000000000118E+01    0.0000000000000000E+00    3.1352000000000313E+01
             1.1626000000000118E+01    2.9550000000000285E+00    3.1352000000000313E+01
             1.1626000000000118E+01    5.9110000000000573E+00    3.1352000000000313E+01
             1.4780000000000146E+00    1.4780000000000146E+00    3.3442000000000355E+01
             1.4780000000000146E+00    4.4330000000000478E+00    3.3442000000000355E+01
             1.4780000000000146E+00    7.3890000000000793E+00    3.3442000000000355E+01
             4.4340000000000437E+00    1.4780000000000146E+00    3.3442000000000355E+01
             4.4340000000000437E+00    4.4330000000000478E+00    3.3442000000000355E+01
             4.4340000000000437E+00    7.3890000000000793E+00    3.3442000000000355E+01
             7.1920000000000739E+00    1.4780000000000146E+00    3.3442000000000355E+01
             7.1920000000000739E+00    4.4330000000000478E+00    3.3442000000000355E+01
             7.1920000000000739E+00    7.3890000000000793E+00    3.3442000000000355E+01
             1.0148000000000103E+01    1.4780000000000146E+00    3.3442000000000355E+01
             1.0148000000000103E+01    4.4330000000000478E+00    3.3442000000000355E+01
             1.0148000000000103E+01    7.3890000000000793E+00    3.3442000000000355E+01
             1.3104000000000127E+01    1.4780000000000146E+00    3.3442000000000355E+01
             1.3104000000000127E+01    4.4330000000000478E+00    3.3442000000000355E+01
             1.3104000000000127E+01    7.3890000000000793E+00    3.3442000000000355E+01
       &END COORD
       &VELOCITY
             0.0000000000000000E+00    0.0000000000000000E+00    0.0000000000000000E+00
             0.0000000000000000E+00    0.0000000000000000E+00    0.0000000000000000E+00
             0.0000000000000000E+00    0.0000000000000000E+00    0.0000000000000000E+00
             0.0000000000000000E+00    0.0000000000000000E+00    0.0000000000000000E+00
             0.0000000000000000E+00    0.0000000000000000E+00    0.0000000000000000E+00
             0.0000000000000000E+00    0.0000000000000000E+00    0.0000000000000000E+00
             0.0000000000000000E+00    0.0000000000000000E+00    0.0000000000000000E+00
             0.0000000000000000E+00    0.0000000000000000E+00    0.0000000000000000E+00
             0.0000000000000000E+00    0.0000000000000000E+00    0.0000000000000000E+00
             0.0000000000000000E+00    0.0000000000000000E+00    0.0000000000000000E+00
             0.0000000000000000E+00    0.0000000000000000E+00    0.0000000000000000E+00
             0.0000000000000000E+00    0.0000000000000000E+00    0.0000000000000000E+00
             0.0000000000000000E+00    0.0000000000000000E+00    0.0000000000000000E+00
             0.0000000000000000E+00    0.0000000000000000E+00    0.0000000000000000E+00
             0.0000000000000000E+00    0.0000000000000000E+00    0.0000000000000000E+00
             0.0000000000000000E+00    0.0000000000000000E+00    0.0000000000000000E+00
             0.0000000000000000E+00    0.0000000000000000E+00    0.0000000000000000E+00
             0.0000000000000000E+00    0.0000000000000000E+00    0.0000000000000000E+00
             0.0000000000000000E+00    0.0000000000000000E+00    0.0000000000000000E+00
             0.0000000000000000E+00    0.0000000000000000E+00    0.0000000000000000E+00
             0.0000000000000000E+00    0.0000000000000000E+00    0.0000000000000000E+00
             0.0000000000000000E+00    0.0000000000000000E+00    0.0000000000000000E+00
             0.0000000000000000E+00    0.0000000000000000E+00    0.0000000000000000E+00
             0.0000000000000000E+00    0.0000000000000000E+00    0.0000000000000000E+00
             0.0000000000000000E+00    0.0000000000000000E+00    0.0000000000000000E+00
             0.0000000000000000E+00    0.0000000000000000E+00    0.0000000000000000E+00
             0.0000000000000000E+00    0.0000000000000000E+00    0.0000000000000000E+00
             0.0000000000000000E+00    0.0000000000000000E+00    0.0000000000000000E+00
             0.0000000000000000E+00    0.0000000000000000E+00    0.0000000000000000E+00
             0.0000000000000000E+00    0.0000000000000000E+00    0.0000000000000000E+00
             0.0000000000000000E+00    0.0000000000000000E+00    0.0000000000000000E+00
             0.0000000000000000E+00    0.0000000000000000E+00    0.0000000000000000E+00
             0.0000000000000000E+00    0.0000000000000000E+00    0.0000000000000000E+00
             0.0000000000000000E+00    0.0000000000000000E+00    0.0000000000000000E+00
             0.0000000000000000E+00    0.0000000000000000E+00    0.0000000000000000E+00
             0.0000000000000000E+00    0.0000000000000000E+00    0.0000000000000000E+00
             0.0000000000000000E+00    0.0000000000000000E+00    0.0000000000000000E+00
             0.0000000000000000E+00    0.0000000000000000E+00    0.0000000000000000E+00
             0.0000000000000000E+00    0.0000000000000000E+00    0.0000000000000000E+00
             0.0000000000000000E+00    0.0000000000000000E+00    0.0000000000000000E+00
             0.0000000000000000E+00    0.0000000000000000E+00    0.0000000000000000E+00
             0.0000000000000000E+00    0.0000000000000000E+00    0.0000000000000000E+00
             0.0000000000000000E+00    0.0000000000000000E+00    0.0000000000000000E+00
             0.0000000000000000E+00    0.0000000000000000E+00    0.0000000000000000E+00
             0.0000000000000000E+00    0.0000000000000000E+00    0.0000000000000000E+00
             0.0000000000000000E+00    0.0000000000000000E+00    0.0000000000000000E+00
             0.0000000000000000E+00    0.0000000000000000E+00    0.0000000000000000E+00
             0.0000000000000000E+00    0.0000000000000000E+00    0.0000000000000000E+00
             0.0000000000000000E+00    0.0000000000000000E+00    0.0000000000000000E+00
             0.0000000000000000E+00    0.0000000000000000E+00    0.0000000000000000E+00
             0.0000000000000000E+00    0.0000000000000000E+00    0.0000000000000000E+00
             0.0000000000000000E+00    0.0000000000000000E+00    0.0000000000000000E+00
             0.0000000000000000E+00    0.0000000000000000E+00    0.0000000000000000E+00
             0.0000000000000000E+00    0.0000000000000000E+00    0.0000000000000000E+00
             0.0000000000000000E+00    0.0000000000000000E+00    0.0000000000000000E+00
             0.0000000000000000E+00    0.0000000000000000E+00    0.0000000000000000E+00
             0.0000000000000000E+00    0.0000000000000000E+00    0.0000000000000000E+00
             0.0000000000000000E+00    0.0000000000000000E+00    0.0000000000000000E+00
             0.0000000000000000E+00    0.0000000000000000E+00    0.0000000000000000E+00
             0.0000000000000000E+00    0.0000000000000000E+00    0.0000000000000000E+00
             0.0000000000000000E+00    0.0000000000000000E+00    0.0000000000000000E+00
             0.0000000000000000E+00    0.0000000000000000E+00    0.0000000000000000E+00
             0.0000000000000000E+00    0.0000000000000000E+00    0.0000000000000000E+00
             0.0000000000000000E+00    0.0000000000000000E+00    0.0000000000000000E+00
             0.0000000000000000E+00    0.0000000000000000E+00    0.0000000000000000E+00
             0.0000000000000000E+00    0.0000000000000000E+00    0.0000000000000000E+00
             0.0000000000000000E+00    0.0000000000000000E+00    0.0000000000000000E+00
             0.0000000000000000E+00    0.0000000000000000E+00    0.0000000000000000E+00
             0.0000000000000000E+00    0.0000000000000000E+00    0.0000000000000000E+00
             0.0000000000000000E+00    0.0000000000000000E+00    0.0000000000000000E+00
             0.0000000000000000E+00    0.0000000000000000E+00    0.0000000000000000E+00
             0.0000000000000000E+00    0.0000000000000000E+00    0.0000000000000000E+00
             0.0000000000000000E+00    0.0000000000000000E+00    0.0000000000000000E+00
             0.0000000000000000E+00    0.0000000000000000E+00    0.0000000000000000E+00
             0.0000000000000000E+00    0.0000000000000000E+00    0.0000000000000000E+00
             0.0000000000000000E+00    0.0000000000000000E+00    0.0000000000000000E+00
             0.0000000000000000E+00    0.0000000000000000E+00    0.0000000000000000E+00
             0.0000000000000000E+00    0.0000000000000000E+00    0.0000000000000000E+00
             0.0000000000000000E+00    0.0000000000000000E+00    0.0000000000000000E+00
             0.0000000000000000E+00    0.0000000000000000E+00    0.0000000000000000E+00
             0.0000000000000000E+00    0.0000000000000000E+00    0.0000000000000000E+00
             0.0000000000000000E+00    0.0000000000000000E+00    0.0000000000000000E+00
             0.0000000000000000E+00    0.0000000000000000E+00    0.0000000000000000E+00
             0.0000000000000000E+00    0.0000000000000000E+00    0.0000000000000000E+00
             0.0000000000000000E+00    0.0000000000000000E+00    0.0000000000000000E+00
             0.0000000000000000E+00    0.0000000000000000E+00    0.0000000000000000E+00
             0.0000000000000000E+00    0.0000000000000000E+00    0.0000000000000000E+00
             0.0000000000000000E+00    0.0000000000000000E+00    0.0000000000000000E+00
             0.0000000000000000E+00    0.0000000000000000E+00    0.0000000000000000E+00
             0.0000000000000000E+00    0.0000000000000000E+00    0.0000000000000000E+00
             0.0000000000000000E+00    0.0000000000000000E+00    0.0000000000000000E+00
             0.0000000000000000E+00    0.0000000000000000E+00    0.0000000000000000E+00
             0.0000000000000000E+00    0.0000000000000000E+00    0.0000000000000000E+00
             0.0000000000000000E+00    0.0000000000000000E+00    0.0000000000000000E+00
             0.0000000000000000E+00    0.0000000000000000E+00    0.0000000000000000E+00
             0.0000000000000000E+00    0.0000000000000000E+00    0.0000000000000000E+00
             0.0000000000000000E+00    0.0000000000000000E+00    0.0000000000000000E+00
             0.0000000000000000E+00    0.0000000000000000E+00    0.0000000000000000E+00
             0.0000000000000000E+00    0.0000000000000000E+00    0.0000000000000000E+00
             0.0000000000000000E+00    0.0000000000000000E+00    0.0000000000000000E+00
             0.0000000000000000E+00    0.0000000000000000E+00    0.0000000000000000E+00
             0.0000000000000000E+00    0.0000000000000000E+00    0.0000000000000000E+00
             0.0000000000000000E+00    0.0000000000000000E+00    0.0000000000000000E+00
             0.0000000000000000E+00    0.0000000000000000E+00    0.0000000000000000E+00
             0.0000000000000000E+00    0.0000000000000000E+00    0.0000000000000000E+00
             0.0000000000000000E+00    0.0000000000000000E+00    0.0000000000000000E+00
             0.0000000000000000E+00    0.0000000000000000E+00    0.0000000000000000E+00
             0.0000000000000000E+00    0.0000000000000000E+00    0.0000000000000000E+00
             0.0000000000000000E+00    0.0000000000000000E+00    0.0000000000000000E+00
             0.0000000000000000E+00    0.0000000000000000E+00    0.0000000000000000E+00
             0.0000000000000000E+00    0.0000000000000000E+00    0.0000000000000000E+00
             0.0000000000000000E+00    0.0000000000000000E+00    0.0000000000000000E+00
             0.0000000000000000E+00    0.0000000000000000E+00    0.0000000000000000E+00
             0.0000000000000000E+00    0.0000000000000000E+00    0.0000000000000000E+00
             0.0000000000000000E+00    0.0000000000000000E+00    0.0000000000000000E+00
             0.0000000000000000E+00    0.0000000000000000E+00    0.0000000000000000E+00
             0.0000000000000000E+00    0.0000000000000000E+00    0.0000000000000000E+00
             0.0000000000000000E+00    0.0000000000000000E+00    0.0000000000000000E+00
             0.0000000000000000E+00    0.0000000000000000E+00    0.0000000000000000E+00
             0.0000000000000000E+00    0.0000000000000000E+00    0.0000000000000000E+00
             0.0000000000000000E+00    0.0000000000000000E+00    0.0000000000000000E+00
             0.0000000000000000E+00    0.0000000000000000E+00    0.0000000000000000E+00
             0.0000000000000000E+00    0.0000000000000000E+00    0.0000000000000000E+00
             0.0000000000000000E+00    0.0000000000000000E+00    0.0000000000000000E+00
             0.0000000000000000E+00    0.0000000000000000E+00    0.0000000000000000E+00
             0.0000000000000000E+00    0.0000000000000000E+00    0.0000000000000000E+00
             0.0000000000000000E+00    0.0000000000000000E+00    0.0000000000000000E+00
             0.0000000000000000E+00    0.0000000000000000E+00    0.0000000000000000E+00
             0.0000000000000000E+00    0.0000000000000000E+00    0.0000000000000000E+00
             0.0000000000000000E+00    0.0000000000000000E+00    0.0000000000000000E+00
             0.0000000000000000E+00    0.0000000000000000E+00    0.0000000000000000E+00
             0.0000000000000000E+00    0.0000000000000000E+00    0.0000000000000000E+00
             0.0000000000000000E+00    0.0000000000000000E+00    0.0000000000000000E+00
             0.0000000000000000E+00    0.0000000000000000E+00    0.0000000000000000E+00
             0.0000000000000000E+00    0.0000000000000000E+00    0.0000000000000000E+00
             0.0000000000000000E+00    0.0000000000000000E+00    0.0000000000000000E+00
             0.0000000000000000E+00    0.0000000000000000E+00    0.0000000000000000E+00
             0.0000000000000000E+00    0.0000000000000000E+00    0.0000000000000000E+00
             0.0000000000000000E+00    0.0000000000000000E+00    0.0000000000000000E+00
             0.0000000000000000E+00    0.0000000000000000E+00    0.0000000000000000E+00
             0.0000000000000000E+00    0.0000000000000000E+00    0.0000000000000000E+00
             0.0000000000000000E+00    0.0000000000000000E+00    0.0000000000000000E+00
             0.0000000000000000E+00    0.0000000000000000E+00    0.0000000000000000E+00
             0.0000000000000000E+00    0.0000000000000000E+00    0.0000000000000000E+00
             0.0000000000000000E+00    0.0000000000000000E+00    0.0000000000000000E+00