 # Version information for this restart file 
 # current date 2024-01-13 06:40:49.705
 # current working dir /gpfs/home/cahart/transport/melamine/au_from-h2/ci-neb/ts1/dft_leads-sz_tip-dzvp_surf-dzvp_kpoints-2-4-20_replicas-5
 # Program compiled at                              Thu 21 Sep 19:20:17 BST 2023
 # Program compiled on                                           hx1-c12-login-1
 # Program compiled for                                                    local
 # Source code revision number                                       git:5518aa6
 &GLOBAL
   EXTENDED_FFT_LENGTHS  T
   PRINT_LEVEL  MEDIUM
   PROJECT_NAME 2_dft_wfn-r-0
   OUTPUT_FILE_NAME 2_dft_wfn-r-0.out
   RUN_TYPE  BAND
 &END GLOBAL
 &MOTION
   &BAND
     NPROC_REP  64
     BAND_TYPE  CI-NEB
     NUMBER_OF_REPLICA  5
     K_SPRING     5.0000000000000003E-02
     &CI_NEB
       NSTEPS_IT  5
     &END CI_NEB
     &OPTIMIZE_BAND
       OPT_TYPE  DIIS
       &DIIS
         MAX_STEPS  1000
       &END DIIS
     &END OPTIMIZE_BAND
     &REPLICA
       &COORD
             0.0000000000000000E+00    0.0000000000000000E+00    0.0000000000000000E+00
             0.0000000000000000E+00    2.9550000000000414E+00    0.0000000000000000E+00
             0.0000000000000000E+00    5.9110000000000831E+00    0.0000000000000000E+00
             2.9560000000000461E+00    0.0000000000000000E+00    0.0000000000000000E+00
             2.9560000000000461E+00    2.9550000000000414E+00    0.0000000000000000E+00
             2.9560000000000461E+00    5.9110000000000831E+00    0.0000000000000000E+00
             5.9120000000000923E+00    0.0000000000000000E+00    0.0000000000000000E+00
             5.9120000000000923E+00    2.9550000000000414E+00    0.0000000000000000E+00
             5.9120000000000923E+00    5.9110000000000831E+00    0.0000000000000000E+00
             8.6700000000001420E+00    0.0000000000000000E+00    0.0000000000000000E+00
             8.6700000000001420E+00    2.9550000000000414E+00    0.0000000000000000E+00
             8.6700000000001420E+00    5.9110000000000831E+00    0.0000000000000000E+00
             1.1626000000000177E+01    0.0000000000000000E+00    0.0000000000000000E+00
             1.1626000000000177E+01    2.9550000000000414E+00    0.0000000000000000E+00
             1.1626000000000177E+01    5.9110000000000831E+00    0.0000000000000000E+00
             1.4780000000000231E+00    1.4780000000000231E+00    2.0900000000000301E+00
             1.4780000000000231E+00    4.4330000000000682E+00    2.0900000000000301E+00
             1.4780000000000231E+00    7.3890000000001113E+00    2.0900000000000301E+00
             4.4340000000000668E+00    1.4780000000000231E+00    2.0900000000000301E+00
             4.4340000000000668E+00    4.4330000000000682E+00    2.0900000000000301E+00
             4.4340000000000668E+00    7.3890000000001113E+00    2.0900000000000301E+00
             7.1920000000001068E+00    1.4780000000000231E+00    2.0900000000000301E+00
             7.1920000000001068E+00    4.4330000000000682E+00    2.0900000000000301E+00
             7.1920000000001068E+00    7.3890000000001113E+00    2.0900000000000301E+00
             1.0148000000000152E+01    1.4780000000000231E+00    2.0900000000000301E+00
             1.0148000000000152E+01    4.4330000000000682E+00    2.0900000000000301E+00
             1.0148000000000152E+01    7.3890000000001113E+00    2.0900000000000301E+00
             1.3104000000000193E+01    1.4780000000000231E+00    2.0900000000000301E+00
             1.3104000000000193E+01    4.4330000000000682E+00    2.0900000000000301E+00
             1.3104000000000193E+01    7.3890000000001113E+00    2.0900000000000301E+00
             0.0000000000000000E+00    0.0000000000000000E+00    4.1800000000000601E+00
             0.0000000000000000E+00    2.9550000000000414E+00    4.1800000000000601E+00
             0.0000000000000000E+00    5.9110000000000831E+00    4.1800000000000601E+00
             2.9560000000000461E+00    0.0000000000000000E+00    4.1800000000000601E+00
             2.9560000000000461E+00    2.9550000000000414E+00    4.1800000000000601E+00
             2.9560000000000461E+00    5.9110000000000831E+00    4.1800000000000601E+00
             5.9120000000000923E+00    0.0000000000000000E+00    4.1800000000000601E+00
             5.9120000000000923E+00    2.9550000000000414E+00    4.1800000000000601E+00
             5.9120000000000923E+00    5.9110000000000831E+00    4.1800000000000601E+00
             8.6700000000001420E+00    0.0000000000000000E+00    4.1800000000000601E+00
             8.6700000000001420E+00    2.9550000000000414E+00    4.1800000000000601E+00
             8.6700000000001420E+00    5.9110000000000831E+00    4.1800000000000601E+00
             1.1626000000000177E+01    0.0000000000000000E+00    4.1800000000000601E+00
             1.1626000000000177E+01    2.9550000000000414E+00    4.1800000000000601E+00
             1.1626000000000177E+01    5.9110000000000831E+00    4.1800000000000601E+00
             1.4780000000000231E+00    1.4780000000000231E+00    6.2700000000000928E+00
             1.4780000000000231E+00    4.4330000000000682E+00    6.2700000000000928E+00
             1.4780000000000231E+00    7.3890000000001113E+00    6.2700000000000928E+00
             4.4340000000000668E+00    1.4780000000000231E+00    6.2700000000000928E+00
             4.4340000000000668E+00    4.4330000000000682E+00    6.2700000000000928E+00
             4.4340000000000668E+00    7.3890000000001113E+00    6.2700000000000928E+00
             7.1920000000001068E+00    1.4780000000000231E+00    6.2700000000000928E+00
             7.1920000000001068E+00    4.4330000000000682E+00    6.2700000000000928E+00
             7.1920000000001068E+00    7.3890000000001113E+00    6.2700000000000928E+00
             1.0148000000000152E+01    1.4780000000000231E+00    6.2700000000000928E+00
             1.0148000000000152E+01    4.4330000000000682E+00    6.2700000000000928E+00
             1.0148000000000152E+01    7.3890000000001113E+00    6.2700000000000928E+00
             1.3104000000000193E+01    1.4780000000000231E+00    6.2700000000000928E+00
             1.3104000000000193E+01    4.4330000000000682E+00    6.2700000000000928E+00
             1.3104000000000193E+01    7.3890000000001113E+00    6.2700000000000928E+00
             0.0000000000000000E+00    0.0000000000000000E+00    8.3600000000001202E+00
             0.0000000000000000E+00    2.9550000000000414E+00    8.3600000000001202E+00
             0.0000000000000000E+00    5.9110000000000831E+00    8.3600000000001202E+00
             2.9560000000000461E+00    0.0000000000000000E+00    8.3600000000001202E+00
             2.9560000000000461E+00    2.9550000000000414E+00    8.3600000000001202E+00
             2.9560000000000461E+00    5.9110000000000831E+00    8.3600000000001202E+00
             5.9120000000000923E+00    0.0000000000000000E+00    8.3600000000001202E+00
             5.9120000000000923E+00    2.9550000000000414E+00    8.3600000000001202E+00
             5.9120000000000923E+00    5.9110000000000831E+00    8.3600000000001202E+00
             8.6700000000001420E+00    0.0000000000000000E+00    8.3600000000001202E+00
             8.6700000000001420E+00    2.9550000000000414E+00    8.3600000000001202E+00
             8.6700000000001420E+00    5.9110000000000831E+00    8.3600000000001202E+00
             1.1626000000000177E+01    0.0000000000000000E+00    8.3600000000001202E+00
             1.1626000000000177E+01    2.9550000000000414E+00    8.3600000000001202E+00
             1.1626000000000177E+01    5.9110000000000831E+00    8.3600000000001202E+00
             1.4780000000000231E+00    1.4780000000000231E+00    1.0450000000000159E+01
             1.4780000000000231E+00    4.4330000000000682E+00    1.0450000000000159E+01
             1.4780000000000231E+00    7.3890000000001113E+00    1.0450000000000159E+01
             4.4340000000000668E+00    1.4780000000000231E+00    1.0450000000000159E+01
             4.4340000000000668E+00    4.4330000000000682E+00    1.0450000000000159E+01
             4.4340000000000668E+00    7.3890000000001113E+00    1.0450000000000159E+01
             7.1920000000001068E+00    1.4780000000000231E+00    1.0450000000000159E+01
             7.1920000000001068E+00    4.4330000000000682E+00    1.0450000000000159E+01
             7.1920000000001068E+00    7.3890000000001113E+00    1.0450000000000159E+01
             1.0148000000000152E+01    1.4780000000000231E+00    1.0450000000000159E+01
             1.0148000000000152E+01    4.4330000000000682E+00    1.0450000000000159E+01
             1.0148000000000152E+01    7.3890000000001113E+00    1.0450000000000159E+01
             1.3104000000000193E+01    1.4780000000000231E+00    1.0450000000000159E+01
             1.3104000000000193E+01    4.4330000000000682E+00    1.0450000000000159E+01
             1.3104000000000193E+01    7.3890000000001113E+00    1.0450000000000159E+01
             4.8554000000000821E+00    5.9119000000000863E+00    1.2031800000000183E+01
             9.5280000000001444E+00    5.9137000000000874E+00    1.2034000000000191E+01
             7.1920000000001068E+00    5.9340000000000952E+00    1.2040000000000186E+01
             4.0750319168000582E+00    5.9049488170000917E+00    1.2696844061800185E+01
             1.0293988349500150E+01    5.9062142779000846E+00    1.2716532694500208E+01
             6.0099999686000940E+00    5.9120523853000915E+00    1.2765819797400191E+01
             8.3750478948001241E+00    5.9129627335000823E+00    1.2760746495900188E+01
             8.4047327065001269E+00    5.8893877816000861E+00    1.4094060897200189E+01
             5.9788500869000973E+00    5.8882515165000875E+00    1.4094239568500225E+01
             7.1943473363001065E+00    5.8799164377000839E+00    1.4701118490300217E+01
             7.1912293097001037E+00    5.8521058221000928E+00    1.6050622658200250E+01
             6.3086348447001033E+00    5.8615539361000932E+00    1.6548439365000245E+01
             8.0709262665001233E+00    5.8621389354000808E+00    1.6553588809700258E+01
             7.3120000000001122E+00    5.9340000000000952E+00    2.1043000000000294E+01
             5.8130000000000885E+00    7.4340000000001165E+00    2.2992000000000374E+01
             8.8130000000001321E+00    4.4340000000000668E+00    2.2992000000000374E+01
             5.8130000000000885E+00    4.4330000000000682E+00    2.2992000000000374E+01
             8.8130000000001321E+00    7.4340000000001165E+00    2.2992000000000374E+01
             1.4780000000000231E+00    1.4780000000000231E+00    2.5082000000000331E+01
             1.4780000000000231E+00    4.4330000000000682E+00    2.5082000000000331E+01
             1.4780000000000231E+00    7.3890000000001113E+00    2.5082000000000331E+01
             4.4340000000000668E+00    1.4780000000000231E+00    2.5082000000000331E+01
             4.4340000000000668E+00    4.4330000000000682E+00    2.5082000000000331E+01
             4.4340000000000668E+00    7.3890000000001113E+00    2.5082000000000331E+01
             7.1920000000001068E+00    1.4780000000000231E+00    2.5082000000000331E+01
             7.1920000000001068E+00    4.4330000000000682E+00    2.5082000000000331E+01
             7.1920000000001068E+00    7.3890000000001113E+00    2.5082000000000331E+01
             1.0148000000000152E+01    1.4780000000000231E+00    2.5082000000000331E+01
             1.0148000000000152E+01    4.4330000000000682E+00    2.5082000000000331E+01
             1.0148000000000152E+01    7.3890000000001113E+00    2.5082000000000331E+01
             1.3104000000000193E+01    1.4780000000000231E+00    2.5082000000000331E+01
             1.3104000000000193E+01    4.4330000000000682E+00    2.5082000000000331E+01
             1.3104000000000193E+01    7.3890000000001113E+00    2.5082000000000331E+01
             0.0000000000000000E+00    0.0000000000000000E+00    2.7172000000000413E+01
             0.0000000000000000E+00    2.9550000000000414E+00    2.7172000000000413E+01
             0.0000000000000000E+00    5.9110000000000831E+00    2.7172000000000413E+01
             2.9560000000000461E+00    0.0000000000000000E+00    2.7172000000000413E+01
             2.9560000000000461E+00    2.9550000000000414E+00    2.7172000000000413E+01
             2.9560000000000461E+00    5.9110000000000831E+00    2.7172000000000413E+01
             5.9120000000000923E+00    0.0000000000000000E+00    2.7172000000000413E+01
             5.9120000000000923E+00    2.9550000000000414E+00    2.7172000000000413E+01
             5.9120000000000923E+00    5.9110000000000831E+00    2.7172000000000413E+01
             8.6700000000001420E+00    0.0000000000000000E+00    2.7172000000000413E+01
             8.6700000000001420E+00    2.9550000000000414E+00    2.7172000000000413E+01
             8.6700000000001420E+00    5.9110000000000831E+00    2.7172000000000413E+01
             1.1626000000000177E+01    0.0000000000000000E+00    2.7172000000000413E+01
             1.1626000000000177E+01    2.9550000000000414E+00    2.7172000000000413E+01
             1.1626000000000177E+01    5.9110000000000831E+00    2.7172000000000413E+01
             1.4780000000000231E+00    1.4780000000000231E+00    2.9262000000000423E+01
             1.4780000000000231E+00    4.4330000000000682E+00    2.9262000000000423E+01
             1.4780000000000231E+00    7.3890000000001113E+00    2.9262000000000423E+01
             4.4340000000000668E+00    1.4780000000000231E+00    2.9262000000000423E+01
             4.4340000000000668E+00    4.4330000000000682E+00    2.9262000000000423E+01
             4.4340000000000668E+00    7.3890000000001113E+00    2.9262000000000423E+01
             7.1920000000001068E+00    1.4780000000000231E+00    2.9262000000000423E+01
             7.1920000000001068E+00    4.4330000000000682E+00    2.9262000000000423E+01
             7.1920000000001068E+00    7.3890000000001113E+00    2.9262000000000423E+01
             1.0148000000000152E+01    1.4780000000000231E+00    2.9262000000000423E+01
             1.0148000000000152E+01    4.4330000000000682E+00    2.9262000000000423E+01
             1.0148000000000152E+01    7.3890000000001113E+00    2.9262000000000423E+01
             1.3104000000000193E+01    1.4780000000000231E+00    2.9262000000000423E+01
             1.3104000000000193E+01    4.4330000000000682E+00    2.9262000000000423E+01
             1.3104000000000193E+01    7.3890000000001113E+00    2.9262000000000423E+01
             0.0000000000000000E+00    0.0000000000000000E+00    3.1352000000000483E+01
             0.0000000000000000E+00    2.9550000000000414E+00    3.1352000000000483E+01
             0.0000000000000000E+00    5.9110000000000831E+00    3.1352000000000483E+01
             2.9560000000000461E+00    0.0000000000000000E+00    3.1352000000000483E+01
             2.9560000000000461E+00    2.9550000000000414E+00    3.1352000000000483E+01
             2.9560000000000461E+00    5.9110000000000831E+00    3.1352000000000483E+01
             5.9120000000000923E+00    0.0000000000000000E+00    3.1352000000000483E+01
             5.9120000000000923E+00    2.9550000000000414E+00    3.1352000000000483E+01
             5.9120000000000923E+00    5.9110000000000831E+00    3.1352000000000483E+01
             8.6700000000001420E+00    0.0000000000000000E+00    3.1352000000000483E+01
             8.6700000000001420E+00    2.9550000000000414E+00    3.1352000000000483E+01
             8.6700000000001420E+00    5.9110000000000831E+00    3.1352000000000483E+01
             1.1626000000000177E+01    0.0000000000000000E+00    3.1352000000000483E+01
             1.1626000000000177E+01    2.9550000000000414E+00    3.1352000000000483E+01
             1.1626000000000177E+01    5.9110000000000831E+00    3.1352000000000483E+01
             1.4780000000000231E+00    1.4780000000000231E+00    3.3442000000000505E+01
             1.4780000000000231E+00    4.4330000000000682E+00    3.3442000000000505E+01
             1.4780000000000231E+00    7.3890000000001113E+00    3.3442000000000505E+01
             4.4340000000000668E+00    1.4780000000000231E+00    3.3442000000000505E+01
             4.4340000000000668E+00    4.4330000000000682E+00    3.3442000000000505E+01
             4.4340000000000668E+00    7.3890000000001113E+00    3.3442000000000505E+01
             7.1920000000001068E+00    1.4780000000000231E+00    3.3442000000000505E+01
             7.1920000000001068E+00    4.4330000000000682E+00    3.3442000000000505E+01
             7.1920000000001068E+00    7.3890000000001113E+00    3.3442000000000505E+01
             1.0148000000000152E+01    1.4780000000000231E+00    3.3442000000000505E+01
             1.0148000000000152E+01    4.4330000000000682E+00    3.3442000000000505E+01
             1.0148000000000152E+01    7.3890000000001113E+00    3.3442000000000505E+01
             1.3104000000000193E+01    1.4780000000000231E+00    3.3442000000000505E+01
             1.3104000000000193E+01    4.4330000000000682E+00    3.3442000000000505E+01
             1.3104000000000193E+01    7.3890000000001113E+00    3.3442000000000505E+01
       &END COORD
       &VELOCITY
             0.0000000000000000E+00    0.0000000000000000E+00    0.0000000000000000E+00
             0.0000000000000000E+00    0.0000000000000000E+00    0.0000000000000000E+00
             0.0000000000000000E+00    0.0000000000000000E+00    0.0000000000000000E+00
             0.0000000000000000E+00    0.0000000000000000E+00    0.0000000000000000E+00
             0.0000000000000000E+00    0.0000000000000000E+00    0.0000000000000000E+00
             0.0000000000000000E+00    0.0000000000000000E+00    0.0000000000000000E+00
             0.0000000000000000E+00    0.0000000000000000E+00    0.0000000000000000E+00
             0.0000000000000000E+00    0.0000000000000000E+00    0.0000000000000000E+00
             0.0000000000000000E+00    0.0000000000000000E+00    0.0000000000000000E+00
             0.0000000000000000E+00    0.0000000000000000E+00    0.0000000000000000E+00
             0.0000000000000000E+00    0.0000000000000000E+00    0.0000000000000000E+00
             0.0000000000000000E+00    0.0000000000000000E+00    0.0000000000000000E+00
             0.0000000000000000E+00    0.0000000000000000E+00    0.0000000000000000E+00
             0.0000000000000000E+00    0.0000000000000000E+00    0.0000000000000000E+00
             0.0000000000000000E+00    0.0000000000000000E+00    0.0000000000000000E+00
             0.0000000000000000E+00    0.0000000000000000E+00    0.0000000000000000E+00
             0.0000000000000000E+00    0.0000000000000000E+00    0.0000000000000000E+00
             0.0000000000000000E+00    0.0000000000000000E+00    0.0000000000000000E+00
             0.0000000000000000E+00    0.0000000000000000E+00    0.0000000000000000E+00
             0.0000000000000000E+00    0.0000000000000000E+00    0.0000000000000000E+00
             0.0000000000000000E+00    0.0000000000000000E+00    0.0000000000000000E+00
             0.0000000000000000E+00    0.0000000000000000E+00    0.0000000000000000E+00
             0.0000000000000000E+00    0.0000000000000000E+00    0.0000000000000000E+00
             0.0000000000000000E+00    0.0000000000000000E+00    0.0000000000000000E+00
             0.0000000000000000E+00    0.0000000000000000E+00    0.0000000000000000E+00
             0.0000000000000000E+00    0.0000000000000000E+00    0.0000000000000000E+00
             0.0000000000000000E+00    0.0000000000000000E+00    0.0000000000000000E+00
             0.0000000000000000E+00    0.0000000000000000E+00    0.0000000000000000E+00
             0.0000000000000000E+00    0.0000000000000000E+00    0.0000000000000000E+00
             0.0000000000000000E+00    0.0000000000000000E+00    0.0000000000000000E+00
             0.0000000000000000E+00    0.0000000000000000E+00    0.0000000000000000E+00
             0.0000000000000000E+00    0.0000000000000000E+00    0.0000000000000000E+00
             0.0000000000000000E+00    0.0000000000000000E+00    0.0000000000000000E+00
             0.0000000000000000E+00    0.0000000000000000E+00    0.0000000000000000E+00
             0.0000000000000000E+00    0.0000000000000000E+00    0.0000000000000000E+00
             0.0000000000000000E+00    0.0000000000000000E+00    0.0000000000000000E+00
             0.0000000000000000E+00    0.0000000000000000E+00    0.0000000000000000E+00
             0.0000000000000000E+00    0.0000000000000000E+00    0.0000000000000000E+00
             0.0000000000000000E+00    0.0000000000000000E+00    0.0000000000000000E+00
             0.0000000000000000E+00    0.0000000000000000E+00    0.0000000000000000E+00
             0.0000000000000000E+00    0.0000000000000000E+00    0.0000000000000000E+00
             0.0000000000000000E+00    0.0000000000000000E+00    0.0000000000000000E+00
             0.0000000000000000E+00    0.0000000000000000E+00    0.0000000000000000E+00
             0.0000000000000000E+00    0.0000000000000000E+00    0.0000000000000000E+00
             0.0000000000000000E+00    0.0000000000000000E+00    0.0000000000000000E+00
             0.0000000000000000E+00    0.0000000000000000E+00    0.0000000000000000E+00
             0.0000000000000000E+00    0.0000000000000000E+00    0.0000000000000000E+00
             0.0000000000000000E+00    0.0000000000000000E+00    0.0000000000000000E+00
             0.0000000000000000E+00    0.0000000000000000E+00    0.0000000000000000E+00
             0.0000000000000000E+00    0.0000000000000000E+00    0.0000000000000000E+00
             0.0000000000000000E+00    0.0000000000000000E+00    0.0000000000000000E+00
             0.0000000000000000E+00    0.0000000000000000E+00    0.0000000000000000E+00
             0.0000000000000000E+00    0.0000000000000000E+00    0.0000000000000000E+00
             0.0000000000000000E+00    0.0000000000000000E+00    0.0000000000000000E+00
             0.0000000000000000E+00    0.0000000000000000E+00    0.0000000000000000E+00
             0.0000000000000000E+00    0.0000000000000000E+00    0.0000000000000000E+00
             0.0000000000000000E+00    0.0000000000000000E+00    0.0000000000000000E+00
             0.0000000000000000E+00    0.0000000000000000E+00    0.0000000000000000E+00
             0.0000000000000000E+00    0.0000000000000000E+00    0.0000000000000000E+00
             0.0000000000000000E+00    0.0000000000000000E+00    0.0000000000000000E+00
             0.0000000000000000E+00    0.0000000000000000E+00    0.0000000000000000E+00
             0.0000000000000000E+00    0.0000000000000000E+00    0.0000000000000000E+00
             0.0000000000000000E+00    0.0000000000000000E+00    0.0000000000000000E+00
             0.0000000000000000E+00    0.0000000000000000E+00    0.0000000000000000E+00
             0.0000000000000000E+00    0.0000000000000000E+00    0.0000000000000000E+00
             0.0000000000000000E+00    0.0000000000000000E+00    0.0000000000000000E+00
             0.0000000000000000E+00    0.0000000000000000E+00    0.0000000000000000E+00
             0.0000000000000000E+00    0.0000000000000000E+00    0.0000000000000000E+00
             0.0000000000000000E+00    0.0000000000000000E+00    0.0000000000000000E+00
             0.0000000000000000E+00    0.0000000000000000E+00    0.0000000000000000E+00
             0.0000000000000000E+00    0.0000000000000000E+00    0.0000000000000000E+00
             0.0000000000000000E+00    0.0000000000000000E+00    0.0000000000000000E+00
             0.0000000000000000E+00    0.0000000000000000E+00    0.0000000000000000E+00
             0.0000000000000000E+00    0.0000000000000000E+00    0.0000000000000000E+00
             0.0000000000000000E+00    0.0000000000000000E+00    0.0000000000000000E+00
             0.0000000000000000E+00    0.0000000000000000E+00    0.0000000000000000E+00
             0.0000000000000000E+00    0.0000000000000000E+00    0.0000000000000000E+00
             0.0000000000000000E+00    0.0000000000000000E+00    0.0000000000000000E+00
             0.0000000000000000E+00    0.0000000000000000E+00    0.0000000000000000E+00
             0.0000000000000000E+00    0.0000000000000000E+00    0.0000000000000000E+00
             0.0000000000000000E+00    0.0000000000000000E+00    0.0000000000000000E+00
             0.0000000000000000E+00    0.0000000000000000E+00    0.0000000000000000E+00
             0.0000000000000000E+00    0.0000000000000000E+00    0.0000000000000000E+00
             0.0000000000000000E+00    0.0000000000000000E+00    0.0000000000000000E+00
             0.0000000000000000E+00    0.0000000000000000E+00    0.0000000000000000E+00
             0.0000000000000000E+00    0.0000000000000000E+00    0.0000000000000000E+00
             0.0000000000000000E+00    0.0000000000000000E+00    0.0000000000000000E+00
             0.0000000000000000E+00    0.0000000000000000E+00    0.0000000000000000E+00
             0.0000000000000000E+00    0.0000000000000000E+00    0.0000000000000000E+00
             0.0000000000000000E+00    0.0000000000000000E+00    0.0000000000000000E+00
             0.0000000000000000E+00    0.0000000000000000E+00    0.0000000000000000E+00
             0.0000000000000000E+00    0.0000000000000000E+00    0.0000000000000000E+00
             0.0000000000000000E+00    0.0000000000000000E+00    0.0000000000000000E+00
             0.0000000000000000E+00    0.0000000000000000E+00    0.0000000000000000E+00
             0.0000000000000000E+00    0.0000000000000000E+00    0.0000000000000000E+00
             0.0000000000000000E+00    0.0000000000000000E+00    0.0000000000000000E+00
             0.0000000000000000E+00    0.0000000000000000E+00    0.0000000000000000E+00
             0.0000000000000000E+00    0.0000000000000000E+00    0.0000000000000000E+00
             0.0000000000000000E+00    0.0000000000000000E+00    0.0000000000000000E+00
             0.0000000000000000E+00    0.0000000000000000E+00    0.0000000000000000E+00
             0.0000000000000000E+00    0.0000000000000000E+00    0.0000000000000000E+00
             0.0000000000000000E+00    0.0000000000000000E+00    0.0000000000000000E+00
             0.0000000000000000E+00    0.0000000000000000E+00    0.0000000000000000E+00
             0.0000000000000000E+00    0.0000000000000000E+00    0.0000000000000000E+00
             0.0000000000000000E+00    0.0000000000000000E+00    0.0000000000000000E+00
             0.0000000000000000E+00    0.0000000000000000E+00    0.0000000000000000E+00
             0.0000000000000000E+00    0.0000000000000000E+00    0.0000000000000000E+00
             0.0000000000000000E+00    0.0000000000000000E+00    0.0000000000000000E+00
             0.0000000000000000E+00    0.0000000000000000E+00    0.0000000000000000E+00
             0.0000000000000000E+00    0.0000000000000000E+00    0.0000000000000000E+00
             0.0000000000000000E+00    0.0000000000000000E+00    0.0000000000000000E+00
             0.0000000000000000E+00    0.0000000000000000E+00    0.0000000000000000E+00
             0.0000000000000000E+00    0.0000000000000000E+00    0.0000000000000000E+00
             0.0000000000000000E+00    0.0000000000000000E+00    0.0000000000000000E+00
             0.0000000000000000E+00    0.0000000000000000E+00    0.0000000000000000E+00
             0.0000000000000000E+00    0.0000000000000000E+00    0.0000000000000000E+00
             0.0000000000000000E+00    0.0000000000000000E+00    0.0000000000000000E+00
             0.0000000000000000E+00    0.0000000000000000E+00    0.0000000000000000E+00
             0.0000000000000000E+00    0.0000000000000000E+00    0.0000000000000000E+00
             0.0000000000000000E+00    0.0000000000000000E+00    0.0000000000000000E+00
             0.0000000000000000E+00    0.0000000000000000E+00    0.0000000000000000E+00
             0.0000000000000000E+00    0.0000000000000000E+00    0.0000000000000000E+00
             0.0000000000000000E+00    0.0000000000000000E+00    0.0000000000000000E+00
             0.0000000000000000E+00    0.0000000000000000E+00    0.0000000000000000E+00
             0.0000000000000000E+00    0.0000000000000000E+00    0.0000000000000000E+00
             0.0000000000000000E+00    0.0000000000000000E+00    0.0000000000000000E+00
             0.0000000000000000E+00    0.0000000000000000E+00    0.0000000000000000E+00
             0.0000000000000000E+00    0.0000000000000000E+00    0.0000000000000000E+00
             0.0000000000000000E+00    0.0000000000000000E+00    0.0000000000000000E+00
             0.0000000000000000E+00    0.0000000000000000E+00    0.0000000000000000E+00
             0.0000000000000000E+00    0.0000000000000000E+00    0.0000000000000000E+00
             0.0000000000000000E+00    0.0000000000000000E+00    0.0000000000000000E+00
             0.0000000000000000E+00    0.0000000000000000E+00    0.0000000000000000E+00
             0.0000000000000000E+00    0.0000000000000000E+00    0.0000000000000000E+00
             0.0000000000000000E+00    0.0000000000000000E+00    0.0000000000000000E+00
             0.0000000000000000E+00    0.0000000000000000E+00    0.0000000000000000E+00
             0.0000000000000000E+00    0.0000000000000000E+00    0.0000000000000000E+00
             0.0000000000000000E+00    0.0000000000000000E+00    0.0000000000000000E+00
             0.0000000000000000E+00    0.0000000000000000E+00    0.0000000000000000E+00
             0.0000000000000000E+00    0.0000000000000000E+00    0.0000000000000000E+00
             0.0000000000000000E+00    0.0000000000000000E+00    0.0000000000000000E+00
             0.0000000000000000E+00    0.0000000000000000E+00    0.0000000000000000E+00
             0.0000000000000000E+00    0.0000000000000000E+00    0.0000000000000000E+00
             0.0000000000000000E+00    0.0000000000000000E+00    0.0000000000000000E+00
             0.0000000000000000E+00    0.0000000000000000E+00    0.0000000000000000E+00