 # Version information for this restart file 
 # current date 2024-01-13 06:24:06.027
 # current working dir /gpfs/home/cahart/transport/melamine/au_from-h2/ci-neb/ts1/dft_leads-sz_tip-dzvp_surf-dzvp_kpoints-2-4-20_replicas-5
 # Program compiled at                              Thu 21 Sep 19:20:17 BST 2023
 # Program compiled on                                           hx1-c12-login-1
 # Program compiled for                                                    local
 # Source code revision number                                       git:5518aa6
 &GLOBAL
   EXTENDED_FFT_LENGTHS  T
   PRINT_LEVEL  MEDIUM
   PROJECT_NAME 2_dft_wfn-r-0
   OUTPUT_FILE_NAME 2_dft_wfn-r-0.out
   RUN_TYPE  BAND
 &END GLOBAL
 &MOTION
   &BAND
     NPROC_REP  64
     BAND_TYPE  CI-NEB
     NUMBER_OF_REPLICA  5
     K_SPRING     5.0000000000000003E-02
     &CI_NEB
       NSTEPS_IT  5
     &END CI_NEB
     &OPTIMIZE_BAND
       OPT_TYPE  DIIS
       &DIIS
         MAX_STEPS  1000
       &END DIIS
     &END OPTIMIZE_BAND
     &REPLICA
       &COORD
             0.0000000000000000E+00    0.0000000000000000E+00    0.0000000000000000E+00
             0.0000000000000000E+00    2.9550000000000423E+00    0.0000000000000000E+00
             0.0000000000000000E+00    5.9110000000000849E+00    0.0000000000000000E+00
             2.9560000000000475E+00    0.0000000000000000E+00    0.0000000000000000E+00
             2.9560000000000475E+00    2.9550000000000423E+00    0.0000000000000000E+00
             2.9560000000000475E+00    5.9110000000000849E+00    0.0000000000000000E+00
             5.9120000000000950E+00    0.0000000000000000E+00    0.0000000000000000E+00
             5.9120000000000950E+00    2.9550000000000423E+00    0.0000000000000000E+00
             5.9120000000000950E+00    5.9110000000000849E+00    0.0000000000000000E+00
             8.6700000000001438E+00    0.0000000000000000E+00    0.0000000000000000E+00
             8.6700000000001438E+00    2.9550000000000423E+00    0.0000000000000000E+00
             8.6700000000001438E+00    5.9110000000000849E+00    0.0000000000000000E+00
             1.1626000000000181E+01    0.0000000000000000E+00    0.0000000000000000E+00
             1.1626000000000181E+01    2.9550000000000423E+00    0.0000000000000000E+00
             1.1626000000000181E+01    5.9110000000000849E+00    0.0000000000000000E+00
             1.4780000000000237E+00    1.4780000000000237E+00    2.0900000000000305E+00
             1.4780000000000237E+00    4.4330000000000691E+00    2.0900000000000305E+00
             1.4780000000000237E+00    7.3890000000001148E+00    2.0900000000000305E+00
             4.4340000000000694E+00    1.4780000000000237E+00    2.0900000000000305E+00
             4.4340000000000694E+00    4.4330000000000691E+00    2.0900000000000305E+00
             4.4340000000000694E+00    7.3890000000001148E+00    2.0900000000000305E+00
             7.1920000000001085E+00    1.4780000000000237E+00    2.0900000000000305E+00
             7.1920000000001085E+00    4.4330000000000691E+00    2.0900000000000305E+00
             7.1920000000001085E+00    7.3890000000001148E+00    2.0900000000000305E+00
             1.0148000000000154E+01    1.4780000000000237E+00    2.0900000000000305E+00
             1.0148000000000154E+01    4.4330000000000691E+00    2.0900000000000305E+00
             1.0148000000000154E+01    7.3890000000001148E+00    2.0900000000000305E+00
             1.3104000000000198E+01    1.4780000000000237E+00    2.0900000000000305E+00
             1.3104000000000198E+01    4.4330000000000691E+00    2.0900000000000305E+00
             1.3104000000000198E+01    7.3890000000001148E+00    2.0900000000000305E+00
             0.0000000000000000E+00    0.0000000000000000E+00    4.1800000000000610E+00
             0.0000000000000000E+00    2.9550000000000423E+00    4.1800000000000610E+00
             0.0000000000000000E+00    5.9110000000000849E+00    4.1800000000000610E+00
             2.9560000000000475E+00    0.0000000000000000E+00    4.1800000000000610E+00
             2.9560000000000475E+00    2.9550000000000423E+00    4.1800000000000610E+00
             2.9560000000000475E+00    5.9110000000000849E+00    4.1800000000000610E+00
             5.9120000000000950E+00    0.0000000000000000E+00    4.1800000000000610E+00
             5.9120000000000950E+00    2.9550000000000423E+00    4.1800000000000610E+00
             5.9120000000000950E+00    5.9110000000000849E+00    4.1800000000000610E+00
             8.6700000000001438E+00    0.0000000000000000E+00    4.1800000000000610E+00
             8.6700000000001438E+00    2.9550000000000423E+00    4.1800000000000610E+00
             8.6700000000001438E+00    5.9110000000000849E+00    4.1800000000000610E+00
             1.1626000000000181E+01    0.0000000000000000E+00    4.1800000000000610E+00
             1.1626000000000181E+01    2.9550000000000423E+00    4.1800000000000610E+00
             1.1626000000000181E+01    5.9110000000000849E+00    4.1800000000000610E+00
             1.4780000000000237E+00    1.4780000000000237E+00    6.2700000000000946E+00
             1.4780000000000237E+00    4.4330000000000691E+00    6.2700000000000946E+00
             1.4780000000000237E+00    7.3890000000001148E+00    6.2700000000000946E+00
             4.4340000000000694E+00    1.4780000000000237E+00    6.2700000000000946E+00
             4.4340000000000694E+00    4.4330000000000691E+00    6.2700000000000946E+00
             4.4340000000000694E+00    7.3890000000001148E+00    6.2700000000000946E+00
             7.1920000000001085E+00    1.4780000000000237E+00    6.2700000000000946E+00
             7.1920000000001085E+00    4.4330000000000691E+00    6.2700000000000946E+00
             7.1920000000001085E+00    7.3890000000001148E+00    6.2700000000000946E+00
             1.0148000000000154E+01    1.4780000000000237E+00    6.2700000000000946E+00
             1.0148000000000154E+01    4.4330000000000691E+00    6.2700000000000946E+00
             1.0148000000000154E+01    7.3890000000001148E+00    6.2700000000000946E+00
             1.3104000000000198E+01    1.4780000000000237E+00    6.2700000000000946E+00
             1.3104000000000198E+01    4.4330000000000691E+00    6.2700000000000946E+00
             1.3104000000000198E+01    7.3890000000001148E+00    6.2700000000000946E+00
             0.0000000000000000E+00    0.0000000000000000E+00    8.3600000000001220E+00
             0.0000000000000000E+00    2.9550000000000423E+00    8.3600000000001220E+00
             0.0000000000000000E+00    5.9110000000000849E+00    8.3600000000001220E+00
             2.9560000000000475E+00    0.0000000000000000E+00    8.3600000000001220E+00
             2.9560000000000475E+00    2.9550000000000423E+00    8.3600000000001220E+00
             2.9560000000000475E+00    5.9110000000000849E+00    8.3600000000001220E+00
             5.9120000000000950E+00    0.0000000000000000E+00    8.3600000000001220E+00
             5.9120000000000950E+00    2.9550000000000423E+00    8.3600000000001220E+00
             5.9120000000000950E+00    5.9110000000000849E+00    8.3600000000001220E+00
             8.6700000000001438E+00    0.0000000000000000E+00    8.3600000000001220E+00
             8.6700000000001438E+00    2.9550000000000423E+00    8.3600000000001220E+00
             8.6700000000001438E+00    5.9110000000000849E+00    8.3600000000001220E+00
             1.1626000000000181E+01    0.0000000000000000E+00    8.3600000000001220E+00
             1.1626000000000181E+01    2.9550000000000423E+00    8.3600000000001220E+00
             1.1626000000000181E+01    5.9110000000000849E+00    8.3600000000001220E+00
             1.4780000000000237E+00    1.4780000000000237E+00    1.0450000000000161E+01
             1.4780000000000237E+00    4.4330000000000691E+00    1.0450000000000161E+01
             1.4780000000000237E+00    7.3890000000001148E+00    1.0450000000000161E+01
             4.4340000000000694E+00    1.4780000000000237E+00    1.0450000000000161E+01
             4.4340000000000694E+00    4.4330000000000691E+00    1.0450000000000161E+01
             4.4340000000000694E+00    7.3890000000001148E+00    1.0450000000000161E+01
             7.1920000000001085E+00    1.4780000000000237E+00    1.0450000000000161E+01
             7.1920000000001085E+00    4.4330000000000691E+00    1.0450000000000161E+01
             7.1920000000001085E+00    7.3890000000001148E+00    1.0450000000000161E+01
             1.0148000000000154E+01    1.4780000000000237E+00    1.0450000000000161E+01
             1.0148000000000154E+01    4.4330000000000691E+00    1.0450000000000161E+01
             1.0148000000000154E+01    7.3890000000001148E+00    1.0450000000000161E+01
             1.3104000000000198E+01    1.4780000000000237E+00    1.0450000000000161E+01
             1.3104000000000198E+01    4.4330000000000691E+00    1.0450000000000161E+01
             1.3104000000000198E+01    7.3890000000001148E+00    1.0450000000000161E+01
             4.8554000000000839E+00    5.9119000000000881E+00    1.2031800000000185E+01
             9.5280000000001479E+00    5.9137000000000901E+00    1.2034000000000193E+01
             7.1920000000001085E+00    5.9340000000000970E+00    1.2040000000000191E+01
             4.0750319168000599E+00    5.9049488170000934E+00    1.2696844061800189E+01
             1.0293988349500154E+01    5.9062142779000864E+00    1.2716532694500215E+01
             6.0099999686000967E+00    5.9120523853000932E+00    1.2765819797400194E+01
             8.3750478948001277E+00    5.9129627335000849E+00    1.2760746495900190E+01
             8.4047327065001305E+00    5.8893877816000888E+00    1.4094060897200196E+01
             5.9788500869000991E+00    5.8882515165000893E+00    1.4094239568500228E+01
             7.1943473363001083E+00    5.8799164377000865E+00    1.4701118490300223E+01
             7.1912293097001063E+00    5.8521058221000946E+00    1.6050622658200258E+01
             6.3086348447001050E+00    5.8615539361000941E+00    1.6548439365000249E+01
             8.0709262665001269E+00    5.8621389354000817E+00    1.6553588809700265E+01
             7.3120000000001140E+00    5.9340000000000970E+00    2.1043000000000305E+01
             5.8130000000000903E+00    7.4340000000001192E+00    2.2992000000000381E+01
             8.8130000000001356E+00    4.4340000000000694E+00    2.2992000000000381E+01
             5.8130000000000903E+00    4.4330000000000691E+00    2.2992000000000381E+01
             8.8130000000001356E+00    7.4340000000001192E+00    2.2992000000000381E+01
             1.4780000000000237E+00    1.4780000000000237E+00    2.5082000000000338E+01
             1.4780000000000237E+00    4.4330000000000691E+00    2.5082000000000338E+01
             1.4780000000000237E+00    7.3890000000001148E+00    2.5082000000000338E+01
             4.4340000000000694E+00    1.4780000000000237E+00    2.5082000000000338E+01
             4.4340000000000694E+00    4.4330000000000691E+00    2.5082000000000338E+01
             4.4340000000000694E+00    7.3890000000001148E+00    2.5082000000000338E+01
             7.1920000000001085E+00    1.4780000000000237E+00    2.5082000000000338E+01
             7.1920000000001085E+00    4.4330000000000691E+00    2.5082000000000338E+01
             7.1920000000001085E+00    7.3890000000001148E+00    2.5082000000000338E+01
             1.0148000000000154E+01    1.4780000000000237E+00    2.5082000000000338E+01
             1.0148000000000154E+01    4.4330000000000691E+00    2.5082000000000338E+01
             1.0148000000000154E+01    7.3890000000001148E+00    2.5082000000000338E+01
             1.3104000000000198E+01    1.4780000000000237E+00    2.5082000000000338E+01
             1.3104000000000198E+01    4.4330000000000691E+00    2.5082000000000338E+01
             1.3104000000000198E+01    7.3890000000001148E+00    2.5082000000000338E+01
             0.0000000000000000E+00    0.0000000000000000E+00    2.7172000000000423E+01
             0.0000000000000000E+00    2.9550000000000423E+00    2.7172000000000423E+01
             0.0000000000000000E+00    5.9110000000000849E+00    2.7172000000000423E+01
             2.9560000000000475E+00    0.0000000000000000E+00    2.7172000000000423E+01
             2.9560000000000475E+00    2.9550000000000423E+00    2.7172000000000423E+01
             2.9560000000000475E+00    5.9110000000000849E+00    2.7172000000000423E+01
             5.9120000000000950E+00    0.0000000000000000E+00    2.7172000000000423E+01
             5.9120000000000950E+00    2.9550000000000423E+00    2.7172000000000423E+01
             5.9120000000000950E+00    5.9110000000000849E+00    2.7172000000000423E+01
             8.6700000000001438E+00    0.0000000000000000E+00    2.7172000000000423E+01
             8.6700000000001438E+00    2.9550000000000423E+00    2.7172000000000423E+01
             8.6700000000001438E+00    5.9110000000000849E+00    2.7172000000000423E+01
             1.1626000000000181E+01    0.0000000000000000E+00    2.7172000000000423E+01
             1.1626000000000181E+01    2.9550000000000423E+00    2.7172000000000423E+01
             1.1626000000000181E+01    5.9110000000000849E+00    2.7172000000000423E+01
             1.4780000000000237E+00    1.4780000000000237E+00    2.9262000000000437E+01
             1.4780000000000237E+00    4.4330000000000691E+00    2.9262000000000437E+01
             1.4780000000000237E+00    7.3890000000001148E+00    2.9262000000000437E+01
             4.4340000000000694E+00    1.4780000000000237E+00    2.9262000000000437E+01
             4.4340000000000694E+00    4.4330000000000691E+00    2.9262000000000437E+01
             4.4340000000000694E+00    7.3890000000001148E+00    2.9262000000000437E+01
             7.1920000000001085E+00    1.4780000000000237E+00    2.9262000000000437E+01
             7.1920000000001085E+00    4.4330000000000691E+00    2.9262000000000437E+01
             7.1920000000001085E+00    7.3890000000001148E+00    2.9262000000000437E+01
             1.0148000000000154E+01    1.4780000000000237E+00    2.9262000000000437E+01
             1.0148000000000154E+01    4.4330000000000691E+00    2.9262000000000437E+01
             1.0148000000000154E+01    7.3890000000001148E+00    2.9262000000000437E+01
             1.3104000000000198E+01    1.4780000000000237E+00    2.9262000000000437E+01
             1.3104000000000198E+01    4.4330000000000691E+00    2.9262000000000437E+01
             1.3104000000000198E+01    7.3890000000001148E+00    2.9262000000000437E+01
             0.0000000000000000E+00    0.0000000000000000E+00    3.1352000000000487E+01
             0.0000000000000000E+00    2.9550000000000423E+00    3.1352000000000487E+01
             0.0000000000000000E+00    5.9110000000000849E+00    3.1352000000000487E+01
             2.9560000000000475E+00    0.0000000000000000E+00    3.1352000000000487E+01
             2.9560000000000475E+00    2.9550000000000423E+00    3.1352000000000487E+01
             2.9560000000000475E+00    5.9110000000000849E+00    3.1352000000000487E+01
             5.9120000000000950E+00    0.0000000000000000E+00    3.1352000000000487E+01
             5.9120000000000950E+00    2.9550000000000423E+00    3.1352000000000487E+01
             5.9120000000000950E+00    5.9110000000000849E+00    3.1352000000000487E+01
             8.6700000000001438E+00    0.0000000000000000E+00    3.1352000000000487E+01
             8.6700000000001438E+00    2.9550000000000423E+00    3.1352000000000487E+01
             8.6700000000001438E+00    5.9110000000000849E+00    3.1352000000000487E+01
             1.1626000000000181E+01    0.0000000000000000E+00    3.1352000000000487E+01
             1.1626000000000181E+01    2.9550000000000423E+00    3.1352000000000487E+01
             1.1626000000000181E+01    5.9110000000000849E+00    3.1352000000000487E+01
             1.4780000000000237E+00    1.4780000000000237E+00    3.3442000000000512E+01
             1.4780000000000237E+00    4.4330000000000691E+00    3.3442000000000512E+01
             1.4780000000000237E+00    7.3890000000001148E+00    3.3442000000000512E+01
             4.4340000000000694E+00    1.4780000000000237E+00    3.3442000000000512E+01
             4.4340000000000694E+00    4.4330000000000691E+00    3.3442000000000512E+01
             4.4340000000000694E+00    7.3890000000001148E+00    3.3442000000000512E+01
             7.1920000000001085E+00    1.4780000000000237E+00    3.3442000000000512E+01
             7.1920000000001085E+00    4.4330000000000691E+00    3.3442000000000512E+01
             7.1920000000001085E+00    7.3890000000001148E+00    3.3442000000000512E+01
             1.0148000000000154E+01    1.4780000000000237E+00    3.3442000000000512E+01
             1.0148000000000154E+01    4.4330000000000691E+00    3.3442000000000512E+01
             1.0148000000000154E+01    7.3890000000001148E+00    3.3442000000000512E+01
             1.3104000000000198E+01    1.4780000000000237E+00    3.3442000000000512E+01
             1.3104000000000198E+01    4.4330000000000691E+00    3.3442000000000512E+01
             1.3104000000000198E+01    7.3890000000001148E+00    3.3442000000000512E+01
       &END COORD
       &VELOCITY
             0.0000000000000000E+00    0.0000000000000000E+00    0.0000000000000000E+00
             0.0000000000000000E+00    0.0000000000000000E+00    0.0000000000000000E+00
             0.0000000000000000E+00    0.0000000000000000E+00    0.0000000000000000E+00
             0.0000000000000000E+00    0.0000000000000000E+00    0.0000000000000000E+00
             0.0000000000000000E+00    0.0000000000000000E+00    0.0000000000000000E+00
             0.0000000000000000E+00    0.0000000000000000E+00    0.0000000000000000E+00
             0.0000000000000000E+00    0.0000000000000000E+00    0.0000000000000000E+00
             0.0000000000000000E+00    0.0000000000000000E+00    0.0000000000000000E+00
             0.0000000000000000E+00    0.0000000000000000E+00    0.0000000000000000E+00
             0.0000000000000000E+00    0.0000000000000000E+00    0.0000000000000000E+00
             0.0000000000000000E+00    0.0000000000000000E+00    0.0000000000000000E+00
             0.0000000000000000E+00    0.0000000000000000E+00    0.0000000000000000E+00
             0.0000000000000000E+00    0.0000000000000000E+00    0.0000000000000000E+00
             0.0000000000000000E+00    0.0000000000000000E+00    0.0000000000000000E+00
             0.0000000000000000E+00    0.0000000000000000E+00    0.0000000000000000E+00
             0.0000000000000000E+00    0.0000000000000000E+00    0.0000000000000000E+00
             0.0000000000000000E+00    0.0000000000000000E+00    0.0000000000000000E+00
             0.0000000000000000E+00    0.0000000000000000E+00    0.0000000000000000E+00
             0.0000000000000000E+00    0.0000000000000000E+00    0.0000000000000000E+00
             0.0000000000000000E+00    0.0000000000000000E+00    0.0000000000000000E+00
             0.0000000000000000E+00    0.0000000000000000E+00    0.0000000000000000E+00
             0.0000000000000000E+00    0.0000000000000000E+00    0.0000000000000000E+00
             0.0000000000000000E+00    0.0000000000000000E+00    0.0000000000000000E+00
             0.0000000000000000E+00    0.0000000000000000E+00    0.0000000000000000E+00
             0.0000000000000000E+00    0.0000000000000000E+00    0.0000000000000000E+00
             0.0000000000000000E+00    0.0000000000000000E+00    0.0000000000000000E+00
             0.0000000000000000E+00    0.0000000000000000E+00    0.0000000000000000E+00
             0.0000000000000000E+00    0.0000000000000000E+00    0.0000000000000000E+00
             0.0000000000000000E+00    0.0000000000000000E+00    0.0000000000000000E+00
             0.0000000000000000E+00    0.0000000000000000E+00    0.0000000000000000E+00
             0.0000000000000000E+00    0.0000000000000000E+00    0.0000000000000000E+00
             0.0000000000000000E+00    0.0000000000000000E+00    0.0000000000000000E+00
             0.0000000000000000E+00    0.0000000000000000E+00    0.0000000000000000E+00
             0.0000000000000000E+00    0.0000000000000000E+00    0.0000000000000000E+00
             0.0000000000000000E+00    0.0000000000000000E+00    0.0000000000000000E+00
             0.0000000000000000E+00    0.0000000000000000E+00    0.0000000000000000E+00
             0.0000000000000000E+00    0.0000000000000000E+00    0.0000000000000000E+00
             0.0000000000000000E+00    0.0000000000000000E+00    0.0000000000000000E+00
             0.0000000000000000E+00    0.0000000000000000E+00    0.0000000000000000E+00
             0.0000000000000000E+00    0.0000000000000000E+00    0.0000000000000000E+00
             0.0000000000000000E+00    0.0000000000000000E+00    0.0000000000000000E+00
             0.0000000000000000E+00    0.0000000000000000E+00    0.0000000000000000E+00
             0.0000000000000000E+00    0.0000000000000000E+00    0.0000000000000000E+00
             0.0000000000000000E+00    0.0000000000000000E+00    0.0000000000000000E+00
             0.0000000000000000E+00    0.0000000000000000E+00    0.0000000000000000E+00
             0.0000000000000000E+00    0.0000000000000000E+00    0.0000000000000000E+00
             0.0000000000000000E+00    0.0000000000000000E+00    0.0000000000000000E+00
             0.0000000000000000E+00    0.0000000000000000E+00    0.0000000000000000E+00
             0.0000000000000000E+00    0.0000000000000000E+00    0.0000000000000000E+00
             0.0000000000000000E+00    0.0000000000000000E+00    0.0000000000000000E+00
             0.0000000000000000E+00    0.0000000000000000E+00    0.0000000000000000E+00
             0.0000000000000000E+00    0.0000000000000000E+00    0.0000000000000000E+00
             0.0000000000000000E+00    0.0000000000000000E+00    0.0000000000000000E+00
             0.0000000000000000E+00    0.0000000000000000E+00    0.0000000000000000E+00
             0.0000000000000000E+00    0.0000000000000000E+00    0.0000000000000000E+00
             0.0000000000000000E+00    0.0000000000000000E+00    0.0000000000000000E+00
             0.0000000000000000E+00    0.0000000000000000E+00    0.0000000000000000E+00
             0.0000000000000000E+00    0.0000000000000000E+00    0.0000000000000000E+00
             0.0000000000000000E+00    0.0000000000000000E+00    0.0000000000000000E+00
             0.0000000000000000E+00    0.0000000000000000E+00    0.0000000000000000E+00
             0.0000000000000000E+00    0.0000000000000000E+00    0.0000000000000000E+00
             0.0000000000000000E+00    0.0000000000000000E+00    0.0000000000000000E+00
             0.0000000000000000E+00    0.0000000000000000E+00    0.0000000000000000E+00
             0.0000000000000000E+00    0.0000000000000000E+00    0.0000000000000000E+00
             0.0000000000000000E+00    0.0000000000000000E+00    0.0000000000000000E+00
             0.0000000000000000E+00    0.0000000000000000E+00    0.0000000000000000E+00
             0.0000000000000000E+00    0.0000000000000000E+00    0.0000000000000000E+00
             0.0000000000000000E+00    0.0000000000000000E+00    0.0000000000000000E+00
             0.0000000000000000E+00    0.0000000000000000E+00    0.0000000000000000E+00
             0.0000000000000000E+00    0.0000000000000000E+00    0.0000000000000000E+00
             0.0000000000000000E+00    0.0000000000000000E+00    0.0000000000000000E+00
             0.0000000000000000E+00    0.0000000000000000E+00    0.0000000000000000E+00
             0.0000000000000000E+00    0.0000000000000000E+00    0.0000000000000000E+00
             0.0000000000000000E+00    0.0000000000000000E+00    0.0000000000000000E+00
             0.0000000000000000E+00    0.0000000000000000E+00    0.0000000000000000E+00
             0.0000000000000000E+00    0.0000000000000000E+00    0.0000000000000000E+00
             0.0000000000000000E+00    0.0000000000000000E+00    0.0000000000000000E+00
             0.0000000000000000E+00    0.0000000000000000E+00    0.0000000000000000E+00
             0.0000000000000000E+00    0.0000000000000000E+00    0.0000000000000000E+00
             0.0000000000000000E+00    0.0000000000000000E+00    0.0000000000000000E+00
             0.0000000000000000E+00    0.0000000000000000E+00    0.0000000000000000E+00
             0.0000000000000000E+00    0.0000000000000000E+00    0.0000000000000000E+00
             0.0000000000000000E+00    0.0000000000000000E+00    0.0000000000000000E+00
             0.0000000000000000E+00    0.0000000000000000E+00    0.0000000000000000E+00
             0.0000000000000000E+00    0.0000000000000000E+00    0.0000000000000000E+00
             0.0000000000000000E+00    0.0000000000000000E+00    0.0000000000000000E+00
             0.0000000000000000E+00    0.0000000000000000E+00    0.0000000000000000E+00
             0.0000000000000000E+00    0.0000000000000000E+00    0.0000000000000000E+00
             0.0000000000000000E+00    0.0000000000000000E+00    0.0000000000000000E+00
             0.0000000000000000E+00    0.0000000000000000E+00    0.0000000000000000E+00
             0.0000000000000000E+00    0.0000000000000000E+00    0.0000000000000000E+00
             0.0000000000000000E+00    0.0000000000000000E+00    0.0000000000000000E+00
             0.0000000000000000E+00    0.0000000000000000E+00    0.0000000000000000E+00
             0.0000000000000000E+00    0.0000000000000000E+00    0.0000000000000000E+00
             0.0000000000000000E+00    0.0000000000000000E+00    0.0000000000000000E+00
             0.0000000000000000E+00    0.0000000000000000E+00    0.0000000000000000E+00
             0.0000000000000000E+00    0.0000000000000000E+00    0.0000000000000000E+00
             0.0000000000000000E+00    0.0000000000000000E+00    0.0000000000000000E+00
             0.0000000000000000E+00    0.0000000000000000E+00    0.0000000000000000E+00
             0.0000000000000000E+00    0.0000000000000000E+00    0.0000000000000000E+00
             0.0000000000000000E+00    0.0000000000000000E+00    0.0000000000000000E+00
             0.0000000000000000E+00    0.0000000000000000E+00    0.0000000000000000E+00
             0.0000000000000000E+00    0.0000000000000000E+00    0.0000000000000000E+00
             0.0000000000000000E+00    0.0000000000000000E+00    0.0000000000000000E+00
             0.0000000000000000E+00    0.0000000000000000E+00    0.0000000000000000E+00
             0.0000000000000000E+00    0.0000000000000000E+00    0.0000000000000000E+00
             0.0000000000000000E+00    0.0000000000000000E+00    0.0000000000000000E+00
             0.0000000000000000E+00    0.0000000000000000E+00    0.0000000000000000E+00
             0.0000000000000000E+00    0.0000000000000000E+00    0.0000000000000000E+00
             0.0000000000000000E+00    0.0000000000000000E+00    0.0000000000000000E+00
             0.0000000000000000E+00    0.0000000000000000E+00    0.0000000000000000E+00
             0.0000000000000000E+00    0.0000000000000000E+00    0.0000000000000000E+00
             0.0000000000000000E+00    0.0000000000000000E+00    0.0000000000000000E+00
             0.0000000000000000E+00    0.0000000000000000E+00    0.0000000000000000E+00
             0.0000000000000000E+00    0.0000000000000000E+00    0.0000000000000000E+00
             0.0000000000000000E+00    0.0000000000000000E+00    0.0000000000000000E+00
             0.0000000000000000E+00    0.0000000000000000E+00    0.0000000000000000E+00
             0.0000000000000000E+00    0.0000000000000000E+00    0.0000000000000000E+00
             0.0000000000000000E+00    0.0000000000000000E+00    0.0000000000000000E+00
             0.0000000000000000E+00    0.0000000000000000E+00    0.0000000000000000E+00
             0.0000000000000000E+00    0.0000000000000000E+00    0.0000000000000000E+00
             0.0000000000000000E+00    0.0000000000000000E+00    0.0000000000000000E+00
             0.0000000000000000E+00    0.0000000000000000E+00    0.0000000000000000E+00
             0.0000000000000000E+00    0.0000000000000000E+00    0.0000000000000000E+00
             0.0000000000000000E+00    0.0000000000000000E+00    0.0000000000000000E+00
             0.0000000000000000E+00    0.0000000000000000E+00    0.0000000000000000E+00
             0.0000000000000000E+00    0.0000000000000000E+00    0.0000000000000000E+00
             0.0000000000000000E+00    0.0000000000000000E+00    0.0000000000000000E+00
             0.0000000000000000E+00    0.0000000000000000E+00    0.0000000000000000E+00
             0.0000000000000000E+00    0.0000000000000000E+00    0.0000000000000000E+00
             0.0000000000000000E+00    0.0000000000000000E+00    0.0000000000000000E+00
             0.0000000000000000E+00    0.0000000000000000E+00    0.0000000000000000E+00
             0.0000000000000000E+00    0.0000000000000000E+00    0.0000000000000000E+00
             0.0000000000000000E+00    0.0000000000000000E+00    0.0000000000000000E+00
             0.0000000000000000E+00    0.0000000000000000E+00    0.0000000000000000E+00
             0.0000000000000000E+00    0.0000000000000000E+00    0.0000000000000000E+00
             0.0000000000000000E+00    0.0000000000000000E+00    0.0000000000000000E+00
             0.0000000000000000E+00    0.0000000000000000E+00    0.0000000000000000E+00
             0.0000000000000000E+00    0.0000000000000000E+00    0.0000000000000000E+00
             0.0000000000000000E+00    0.0000000000000000E+00    0.0000000000000000E+00
             0.0000000000000000E+00    0.0000000000000000E+00    0.0000000000000000E+00
             0.0000000000000000E+00    0.0000000000000000E+00    0.0000000000000000E+00
             0.0000000000000000E+00    0.0000000000000000E+00    0.0000000000000000E+00
             0.0000000000000000E+00    0.0000000000000000E+00    0.0000000000000000E+00
             0.0000000000000000E+00    0.0000000000000000E+00    0.0000000000000000E+00