 # Version information for this restart file 
 # current date 2024-01-12 22:34:30.972
 # current working dir /gpfs/home/cahart/transport/melamine/au_from-h2/ci-neb/ts1/dft_leads-sz_tip-dzvp_surf-dzvp_kpoints-2-4-20_replicas-5
 # Program compiled at                              Thu 21 Sep 19:20:17 BST 2023
 # Program compiled on                                           hx1-c12-login-1
 # Program compiled for                                                    local
 # Source code revision number                                       git:5518aa6
 &GLOBAL
   EXTENDED_FFT_LENGTHS  T
   PRINT_LEVEL  MEDIUM
   PROJECT_NAME 2_dft_wfn-r-0
   OUTPUT_FILE_NAME 2_dft_wfn-r-0.out
   RUN_TYPE  BAND
 &END GLOBAL
 &MOTION
   &BAND
     NPROC_REP  64
     BAND_TYPE  CI-NEB
     NUMBER_OF_REPLICA  5
     K_SPRING     5.0000000000000003E-02
     &CI_NEB
       NSTEPS_IT  5
     &END CI_NEB
     &OPTIMIZE_BAND
       OPT_TYPE  DIIS
       &DIIS
         MAX_STEPS  1000
       &END DIIS
     &END OPTIMIZE_BAND
     &REPLICA
       &COORD
             0.0000000000000000E+00    0.0000000000000000E+00    0.0000000000000000E+00
             0.0000000000000000E+00    2.9550000000000267E+00    0.0000000000000000E+00
             0.0000000000000000E+00    5.9110000000000538E+00    0.0000000000000000E+00
             2.9560000000000275E+00    0.0000000000000000E+00    0.0000000000000000E+00
             2.9560000000000275E+00    2.9550000000000267E+00    0.0000000000000000E+00
             2.9560000000000275E+00    5.9110000000000538E+00    0.0000000000000000E+00
             5.9120000000000550E+00    0.0000000000000000E+00    0.0000000000000000E+00
             5.9120000000000550E+00    2.9550000000000267E+00    0.0000000000000000E+00
             5.9120000000000550E+00    5.9110000000000538E+00    0.0000000000000000E+00
             8.6700000000000887E+00    0.0000000000000000E+00    0.0000000000000000E+00
             8.6700000000000887E+00    2.9550000000000267E+00    0.0000000000000000E+00
             8.6700000000000887E+00    5.9110000000000538E+00    0.0000000000000000E+00
             1.1626000000000113E+01    0.0000000000000000E+00    0.0000000000000000E+00
             1.1626000000000113E+01    2.9550000000000267E+00    0.0000000000000000E+00
             1.1626000000000113E+01    5.9110000000000538E+00    0.0000000000000000E+00
             1.4780000000000137E+00    1.4780000000000137E+00    2.0900000000000194E+00
             1.4780000000000137E+00    4.4330000000000451E+00    2.0900000000000194E+00
             1.4780000000000137E+00    7.3890000000000757E+00    2.0900000000000194E+00
             4.4340000000000410E+00    1.4780000000000137E+00    2.0900000000000194E+00
             4.4340000000000410E+00    4.4330000000000451E+00    2.0900000000000194E+00
             4.4340000000000410E+00    7.3890000000000757E+00    2.0900000000000194E+00
             7.1920000000000703E+00    1.4780000000000137E+00    2.0900000000000194E+00
             7.1920000000000703E+00    4.4330000000000451E+00    2.0900000000000194E+00
             7.1920000000000703E+00    7.3890000000000757E+00    2.0900000000000194E+00
             1.0148000000000096E+01    1.4780000000000137E+00    2.0900000000000194E+00
             1.0148000000000096E+01    4.4330000000000451E+00    2.0900000000000194E+00
             1.0148000000000096E+01    7.3890000000000757E+00    2.0900000000000194E+00
             1.3104000000000120E+01    1.4780000000000137E+00    2.0900000000000194E+00
             1.3104000000000120E+01    4.4330000000000451E+00    2.0900000000000194E+00
             1.3104000000000120E+01    7.3890000000000757E+00    2.0900000000000194E+00
             0.0000000000000000E+00    0.0000000000000000E+00    4.1800000000000388E+00
             0.0000000000000000E+00    2.9550000000000267E+00    4.1800000000000388E+00
             0.0000000000000000E+00    5.9110000000000538E+00    4.1800000000000388E+00
             2.9560000000000275E+00    0.0000000000000000E+00    4.1800000000000388E+00
             2.9560000000000275E+00    2.9550000000000267E+00    4.1800000000000388E+00
             2.9560000000000275E+00    5.9110000000000538E+00    4.1800000000000388E+00
             5.9120000000000550E+00    0.0000000000000000E+00    4.1800000000000388E+00
             5.9120000000000550E+00    2.9550000000000267E+00    4.1800000000000388E+00
             5.9120000000000550E+00    5.9110000000000538E+00    4.1800000000000388E+00
             8.6700000000000887E+00    0.0000000000000000E+00    4.1800000000000388E+00
             8.6700000000000887E+00    2.9550000000000267E+00    4.1800000000000388E+00
             8.6700000000000887E+00    5.9110000000000538E+00    4.1800000000000388E+00
             1.1626000000000113E+01    0.0000000000000000E+00    4.1800000000000388E+00
             1.1626000000000113E+01    2.9550000000000267E+00    4.1800000000000388E+00
             1.1626000000000113E+01    5.9110000000000538E+00    4.1800000000000388E+00
             1.4780000000000137E+00    1.4780000000000137E+00    6.2700000000000591E+00
             1.4780000000000137E+00    4.4330000000000451E+00    6.2700000000000591E+00
             1.4780000000000137E+00    7.3890000000000757E+00    6.2700000000000591E+00
             4.4340000000000410E+00    1.4780000000000137E+00    6.2700000000000591E+00
             4.4340000000000410E+00    4.4330000000000451E+00    6.2700000000000591E+00
             4.4340000000000410E+00    7.3890000000000757E+00    6.2700000000000591E+00
             7.1920000000000703E+00    1.4780000000000137E+00    6.2700000000000591E+00
             7.1920000000000703E+00    4.4330000000000451E+00    6.2700000000000591E+00
             7.1920000000000703E+00    7.3890000000000757E+00    6.2700000000000591E+00
             1.0148000000000096E+01    1.4780000000000137E+00    6.2700000000000591E+00
             1.0148000000000096E+01    4.4330000000000451E+00    6.2700000000000591E+00
             1.0148000000000096E+01    7.3890000000000757E+00    6.2700000000000591E+00
             1.3104000000000120E+01    1.4780000000000137E+00    6.2700000000000591E+00
             1.3104000000000120E+01    4.4330000000000451E+00    6.2700000000000591E+00
             1.3104000000000120E+01    7.3890000000000757E+00    6.2700000000000591E+00
             0.0000000000000000E+00    0.0000000000000000E+00    8.3600000000000776E+00
             0.0000000000000000E+00    2.9550000000000267E+00    8.3600000000000776E+00
             0.0000000000000000E+00    5.9110000000000538E+00    8.3600000000000776E+00
             2.9560000000000275E+00    0.0000000000000000E+00    8.3600000000000776E+00
             2.9560000000000275E+00    2.9550000000000267E+00    8.3600000000000776E+00
             2.9560000000000275E+00    5.9110000000000538E+00    8.3600000000000776E+00
             5.9120000000000550E+00    0.0000000000000000E+00    8.3600000000000776E+00
             5.9120000000000550E+00    2.9550000000000267E+00    8.3600000000000776E+00
             5.9120000000000550E+00    5.9110000000000538E+00    8.3600000000000776E+00
             8.6700000000000887E+00    0.0000000000000000E+00    8.3600000000000776E+00
             8.6700000000000887E+00    2.9550000000000267E+00    8.3600000000000776E+00
             8.6700000000000887E+00    5.9110000000000538E+00    8.3600000000000776E+00
             1.1626000000000113E+01    0.0000000000000000E+00    8.3600000000000776E+00
             1.1626000000000113E+01    2.9550000000000267E+00    8.3600000000000776E+00
             1.1626000000000113E+01    5.9110000000000538E+00    8.3600000000000776E+00
             1.4780000000000137E+00    1.4780000000000137E+00    1.0450000000000099E+01
             1.4780000000000137E+00    4.4330000000000451E+00    1.0450000000000099E+01
             1.4780000000000137E+00    7.3890000000000757E+00    1.0450000000000099E+01
             4.4340000000000410E+00    1.4780000000000137E+00    1.0450000000000099E+01
             4.4340000000000410E+00    4.4330000000000451E+00    1.0450000000000099E+01
             4.4340000000000410E+00    7.3890000000000757E+00    1.0450000000000099E+01
             7.1920000000000703E+00    1.4780000000000137E+00    1.0450000000000099E+01
             7.1920000000000703E+00    4.4330000000000451E+00    1.0450000000000099E+01
             7.1920000000000703E+00    7.3890000000000757E+00    1.0450000000000099E+01
             1.0148000000000096E+01    1.4780000000000137E+00    1.0450000000000099E+01
             1.0148000000000096E+01    4.4330000000000451E+00    1.0450000000000099E+01
             1.0148000000000096E+01    7.3890000000000757E+00    1.0450000000000099E+01
             1.3104000000000120E+01    1.4780000000000137E+00    1.0450000000000099E+01
             1.3104000000000120E+01    4.4330000000000451E+00    1.0450000000000099E+01
             1.3104000000000120E+01    7.3890000000000757E+00    1.0450000000000099E+01
             4.8554000000000528E+00    5.9119000000000588E+00    1.2031800000000116E+01
             9.5280000000000946E+00    5.9137000000000546E+00    1.2034000000000123E+01
             7.1920000000000703E+00    5.9340000000000606E+00    1.2040000000000115E+01
             4.0750319168000386E+00    5.9049488170000553E+00    1.2696844061800114E+01
             1.0293988349500092E+01    5.9062142779000535E+00    1.2716532694500131E+01
             6.0099999686000638E+00    5.9120523853000586E+00    1.2765819797400123E+01
             8.3750478948000815E+00    5.9129627335000547E+00    1.2760746495900118E+01
             8.4047327065000843E+00    5.8893877816000559E+00    1.4094060897200125E+01
             5.9788500869000600E+00    5.8882515165000529E+00    1.4094239568500139E+01
             7.1943473363000683E+00    5.8799164377000537E+00    1.4701118490300145E+01
             7.1912293097000699E+00    5.8521058221000573E+00    1.6050622658200169E+01
             6.3086348447000624E+00    5.8615539361000595E+00    1.6548439365000171E+01
             8.0709262665000789E+00    5.8621389354000550E+00    1.6553588809700155E+01
             7.3120000000000660E+00    5.9340000000000606E+00    2.1043000000000191E+01
             5.8130000000000566E+00    7.4340000000000739E+00    2.2992000000000235E+01
             8.8130000000000788E+00    4.4340000000000410E+00    2.2992000000000235E+01
             5.8130000000000566E+00    4.4330000000000451E+00    2.2992000000000235E+01
             8.8130000000000788E+00    7.4340000000000739E+00    2.2992000000000235E+01
             1.4780000000000137E+00    1.4780000000000137E+00    2.5082000000000207E+01
             1.4780000000000137E+00    4.4330000000000451E+00    2.5082000000000207E+01
             1.4780000000000137E+00    7.3890000000000757E+00    2.5082000000000207E+01
             4.4340000000000410E+00    1.4780000000000137E+00    2.5082000000000207E+01
             4.4340000000000410E+00    4.4330000000000451E+00    2.5082000000000207E+01
             4.4340000000000410E+00    7.3890000000000757E+00    2.5082000000000207E+01
             7.1920000000000703E+00    1.4780000000000137E+00    2.5082000000000207E+01
             7.1920000000000703E+00    4.4330000000000451E+00    2.5082000000000207E+01
             7.1920000000000703E+00    7.3890000000000757E+00    2.5082000000000207E+01
             1.0148000000000096E+01    1.4780000000000137E+00    2.5082000000000207E+01
             1.0148000000000096E+01    4.4330000000000451E+00    2.5082000000000207E+01
             1.0148000000000096E+01    7.3890000000000757E+00    2.5082000000000207E+01
             1.3104000000000120E+01    1.4780000000000137E+00    2.5082000000000207E+01
             1.3104000000000120E+01    4.4330000000000451E+00    2.5082000000000207E+01
             1.3104000000000120E+01    7.3890000000000757E+00    2.5082000000000207E+01
             0.0000000000000000E+00    0.0000000000000000E+00    2.7172000000000253E+01
             0.0000000000000000E+00    2.9550000000000267E+00    2.7172000000000253E+01
             0.0000000000000000E+00    5.9110000000000538E+00    2.7172000000000253E+01
             2.9560000000000275E+00    0.0000000000000000E+00    2.7172000000000253E+01
             2.9560000000000275E+00    2.9550000000000267E+00    2.7172000000000253E+01
             2.9560000000000275E+00    5.9110000000000538E+00    2.7172000000000253E+01
             5.9120000000000550E+00    0.0000000000000000E+00    2.7172000000000253E+01
             5.9120000000000550E+00    2.9550000000000267E+00    2.7172000000000253E+01
             5.9120000000000550E+00    5.9110000000000538E+00    2.7172000000000253E+01
             8.6700000000000887E+00    0.0000000000000000E+00    2.7172000000000253E+01
             8.6700000000000887E+00    2.9550000000000267E+00    2.7172000000000253E+01
             8.6700000000000887E+00    5.9110000000000538E+00    2.7172000000000253E+01
             1.1626000000000113E+01    0.0000000000000000E+00    2.7172000000000253E+01
             1.1626000000000113E+01    2.9550000000000267E+00    2.7172000000000253E+01
             1.1626000000000113E+01    5.9110000000000538E+00    2.7172000000000253E+01
             1.4780000000000137E+00    1.4780000000000137E+00    2.9262000000000260E+01
             1.4780000000000137E+00    4.4330000000000451E+00    2.9262000000000260E+01
             1.4780000000000137E+00    7.3890000000000757E+00    2.9262000000000260E+01
             4.4340000000000410E+00    1.4780000000000137E+00    2.9262000000000260E+01
             4.4340000000000410E+00    4.4330000000000451E+00    2.9262000000000260E+01
             4.4340000000000410E+00    7.3890000000000757E+00    2.9262000000000260E+01
             7.1920000000000703E+00    1.4780000000000137E+00    2.9262000000000260E+01
             7.1920000000000703E+00    4.4330000000000451E+00    2.9262000000000260E+01
             7.1920000000000703E+00    7.3890000000000757E+00    2.9262000000000260E+01
             1.0148000000000096E+01    1.4780000000000137E+00    2.9262000000000260E+01
             1.0148000000000096E+01    4.4330000000000451E+00    2.9262000000000260E+01
             1.0148000000000096E+01    7.3890000000000757E+00    2.9262000000000260E+01
             1.3104000000000120E+01    1.4780000000000137E+00    2.9262000000000260E+01
             1.3104000000000120E+01    4.4330000000000451E+00    2.9262000000000260E+01
             1.3104000000000120E+01    7.3890000000000757E+00    2.9262000000000260E+01
             0.0000000000000000E+00    0.0000000000000000E+00    3.1352000000000292E+01
             0.0000000000000000E+00    2.9550000000000267E+00    3.1352000000000292E+01
             0.0000000000000000E+00    5.9110000000000538E+00    3.1352000000000292E+01
             2.9560000000000275E+00    0.0000000000000000E+00    3.1352000000000292E+01
             2.9560000000000275E+00    2.9550000000000267E+00    3.1352000000000292E+01
             2.9560000000000275E+00    5.9110000000000538E+00    3.1352000000000292E+01
             5.9120000000000550E+00    0.0000000000000000E+00    3.1352000000000292E+01
             5.9120000000000550E+00    2.9550000000000267E+00    3.1352000000000292E+01
             5.9120000000000550E+00    5.9110000000000538E+00    3.1352000000000292E+01
             8.6700000000000887E+00    0.0000000000000000E+00    3.1352000000000292E+01
             8.6700000000000887E+00    2.9550000000000267E+00    3.1352000000000292E+01
             8.6700000000000887E+00    5.9110000000000538E+00    3.1352000000000292E+01
             1.1626000000000113E+01    0.0000000000000000E+00    3.1352000000000292E+01
             1.1626000000000113E+01    2.9550000000000267E+00    3.1352000000000292E+01
             1.1626000000000113E+01    5.9110000000000538E+00    3.1352000000000292E+01
             1.4780000000000137E+00    1.4780000000000137E+00    3.3442000000000327E+01
             1.4780000000000137E+00    4.4330000000000451E+00    3.3442000000000327E+01
             1.4780000000000137E+00    7.3890000000000757E+00    3.3442000000000327E+01
             4.4340000000000410E+00    1.4780000000000137E+00    3.3442000000000327E+01
             4.4340000000000410E+00    4.4330000000000451E+00    3.3442000000000327E+01
             4.4340000000000410E+00    7.3890000000000757E+00    3.3442000000000327E+01
             7.1920000000000703E+00    1.4780000000000137E+00    3.3442000000000327E+01
             7.1920000000000703E+00    4.4330000000000451E+00    3.3442000000000327E+01
             7.1920000000000703E+00    7.3890000000000757E+00    3.3442000000000327E+01
             1.0148000000000096E+01    1.4780000000000137E+00    3.3442000000000327E+01
             1.0148000000000096E+01    4.4330000000000451E+00    3.3442000000000327E+01
             1.0148000000000096E+01    7.3890000000000757E+00    3.3442000000000327E+01
             1.3104000000000120E+01    1.4780000000000137E+00    3.3442000000000327E+01
             1.3104000000000120E+01    4.4330000000000451E+00    3.3442000000000327E+01
             1.3104000000000120E+01    7.3890000000000757E+00    3.3442000000000327E+01
       &END COORD
       &VELOCITY
             0.0000000000000000E+00    0.0000000000000000E+00    0.0000000000000000E+00
             0.0000000000000000E+00    0.0000000000000000E+00    0.0000000000000000E+00
             0.0000000000000000E+00    0.0000000000000000E+00    0.0000000000000000E+00
             0.0000000000000000E+00    0.0000000000000000E+00    0.0000000000000000E+00
             0.0000000000000000E+00    0.0000000000000000E+00    0.0000000000000000E+00
             0.0000000000000000E+00    0.0000000000000000E+00    0.0000000000000000E+00
             0.0000000000000000E+00    0.0000000000000000E+00    0.0000000000000000E+00
             0.0000000000000000E+00    0.0000000000000000E+00    0.0000000000000000E+00
             0.0000000000000000E+00    0.0000000000000000E+00    0.0000000000000000E+00
             0.0000000000000000E+00    0.0000000000000000E+00    0.0000000000000000E+00
             0.0000000000000000E+00    0.0000000000000000E+00    0.0000000000000000E+00
             0.0000000000000000E+00    0.0000000000000000E+00    0.0000000000000000E+00
             0.0000000000000000E+00    0.0000000000000000E+00    0.0000000000000000E+00
             0.0000000000000000E+00    0.0000000000000000E+00    0.0000000000000000E+00
             0.0000000000000000E+00    0.0000000000000000E+00    0.0000000000000000E+00
             0.0000000000000000E+00    0.0000000000000000E+00    0.0000000000000000E+00
             0.0000000000000000E+00    0.0000000000000000E+00    0.0000000000000000E+00
             0.0000000000000000E+00    0.0000000000000000E+00    0.0000000000000000E+00
             0.0000000000000000E+00    0.0000000000000000E+00    0.0000000000000000E+00
             0.0000000000000000E+00    0.0000000000000000E+00    0.0000000000000000E+00
             0.0000000000000000E+00    0.0000000000000000E+00    0.0000000000000000E+00
             0.0000000000000000E+00    0.0000000000000000E+00    0.0000000000000000E+00
             0.0000000000000000E+00    0.0000000000000000E+00    0.0000000000000000E+00
             0.0000000000000000E+00    0.0000000000000000E+00    0.0000000000000000E+00
             0.0000000000000000E+00    0.0000000000000000E+00    0.0000000000000000E+00
             0.0000000000000000E+00    0.0000000000000000E+00    0.0000000000000000E+00
             0.0000000000000000E+00    0.0000000000000000E+00    0.0000000000000000E+00
             0.0000000000000000E+00    0.0000000000000000E+00    0.0000000000000000E+00
             0.0000000000000000E+00    0.0000000000000000E+00    0.0000000000000000E+00
             0.0000000000000000E+00    0.0000000000000000E+00    0.0000000000000000E+00
             0.0000000000000000E+00    0.0000000000000000E+00    0.0000000000000000E+00
             0.0000000000000000E+00    0.0000000000000000E+00    0.0000000000000000E+00
             0.0000000000000000E+00    0.0000000000000000E+00    0.0000000000000000E+00
             0.0000000000000000E+00    0.0000000000000000E+00    0.0000000000000000E+00
             0.0000000000000000E+00    0.0000000000000000E+00    0.0000000000000000E+00
             0.0000000000000000E+00    0.0000000000000000E+00    0.0000000000000000E+00
             0.0000000000000000E+00    0.0000000000000000E+00    0.0000000000000000E+00
             0.0000000000000000E+00    0.0000000000000000E+00    0.0000000000000000E+00
             0.0000000000000000E+00    0.0000000000000000E+00    0.0000000000000000E+00
             0.0000000000000000E+00    0.0000000000000000E+00    0.0000000000000000E+00
             0.0000000000000000E+00    0.0000000000000000E+00    0.0000000000000000E+00
             0.0000000000000000E+00    0.0000000000000000E+00    0.0000000000000000E+00
             0.0000000000000000E+00    0.0000000000000000E+00    0.0000000000000000E+00
             0.0000000000000000E+00    0.0000000000000000E+00    0.0000000000000000E+00
             0.0000000000000000E+00    0.0000000000000000E+00    0.0000000000000000E+00
             0.0000000000000000E+00    0.0000000000000000E+00    0.0000000000000000E+00
             0.0000000000000000E+00    0.0000000000000000E+00    0.0000000000000000E+00
             0.0000000000000000E+00    0.0000000000000000E+00    0.0000000000000000E+00
             0.0000000000000000E+00    0.0000000000000000E+00    0.0000000000000000E+00
             0.0000000000000000E+00    0.0000000000000000E+00    0.0000000000000000E+00
             0.0000000000000000E+00    0.0000000000000000E+00    0.0000000000000000E+00
             0.0000000000000000E+00    0.0000000000000000E+00    0.0000000000000000E+00
             0.0000000000000000E+00    0.0000000000000000E+00    0.0000000000000000E+00
             0.0000000000000000E+00    0.0000000000000000E+00    0.0000000000000000E+00
             0.0000000000000000E+00    0.0000000000000000E+00    0.0000000000000000E+00
             0.0000000000000000E+00    0.0000000000000000E+00    0.0000000000000000E+00
             0.0000000000000000E+00    0.0000000000000000E+00    0.0000000000000000E+00
             0.0000000000000000E+00    0.0000000000000000E+00    0.0000000000000000E+00
             0.0000000000000000E+00    0.0000000000000000E+00    0.0000000000000000E+00
             0.0000000000000000E+00    0.0000000000000000E+00    0.0000000000000000E+00
             0.0000000000000000E+00    0.0000000000000000E+00    0.0000000000000000E+00
             0.0000000000000000E+00    0.0000000000000000E+00    0.0000000000000000E+00
             0.0000000000000000E+00    0.0000000000000000E+00    0.0000000000000000E+00
             0.0000000000000000E+00    0.0000000000000000E+00    0.0000000000000000E+00
             0.0000000000000000E+00    0.0000000000000000E+00    0.0000000000000000E+00
             0.0000000000000000E+00    0.0000000000000000E+00    0.0000000000000000E+00
             0.0000000000000000E+00    0.0000000000000000E+00    0.0000000000000000E+00
             0.0000000000000000E+00    0.0000000000000000E+00    0.0000000000000000E+00
             0.0000000000000000E+00    0.0000000000000000E+00    0.0000000000000000E+00
             0.0000000000000000E+00    0.0000000000000000E+00    0.0000000000000000E+00
             0.0000000000000000E+00    0.0000000000000000E+00    0.0000000000000000E+00
             0.0000000000000000E+00    0.0000000000000000E+00    0.0000000000000000E+00
             0.0000000000000000E+00    0.0000000000000000E+00    0.0000000000000000E+00
             0.0000000000000000E+00    0.0000000000000000E+00    0.0000000000000000E+00
             0.0000000000000000E+00    0.0000000000000000E+00    0.0000000000000000E+00
             0.0000000000000000E+00    0.0000000000000000E+00    0.0000000000000000E+00
             0.0000000000000000E+00    0.0000000000000000E+00    0.0000000000000000E+00
             0.0000000000000000E+00    0.0000000000000000E+00    0.0000000000000000E+00
             0.0000000000000000E+00    0.0000000000000000E+00    0.0000000000000000E+00
             0.0000000000000000E+00    0.0000000000000000E+00    0.0000000000000000E+00
             0.0000000000000000E+00    0.0000000000000000E+00    0.0000000000000000E+00
             0.0000000000000000E+00    0.0000000000000000E+00    0.0000000000000000E+00
             0.0000000000000000E+00    0.0000000000000000E+00    0.0000000000000000E+00
             0.0000000000000000E+00    0.0000000000000000E+00    0.0000000000000000E+00
             0.0000000000000000E+00    0.0000000000000000E+00    0.0000000000000000E+00
             0.0000000000000000E+00    0.0000000000000000E+00    0.0000000000000000E+00
             0.0000000000000000E+00    0.0000000000000000E+00    0.0000000000000000E+00
             0.0000000000000000E+00    0.0000000000000000E+00    0.0000000000000000E+00
             0.0000000000000000E+00    0.0000000000000000E+00    0.0000000000000000E+00
             0.0000000000000000E+00    0.0000000000000000E+00    0.0000000000000000E+00
             0.0000000000000000E+00    0.0000000000000000E+00    0.0000000000000000E+00
             0.0000000000000000E+00    0.0000000000000000E+00    0.0000000000000000E+00
             0.0000000000000000E+00    0.0000000000000000E+00    0.0000000000000000E+00
             0.0000000000000000E+00    0.0000000000000000E+00    0.0000000000000000E+00
             0.0000000000000000E+00    0.0000000000000000E+00    0.0000000000000000E+00
             0.0000000000000000E+00    0.0000000000000000E+00    0.0000000000000000E+00
             0.0000000000000000E+00    0.0000000000000000E+00    0.0000000000000000E+00
             0.0000000000000000E+00    0.0000000000000000E+00    0.0000000000000000E+00
             0.0000000000000000E+00    0.0000000000000000E+00    0.0000000000000000E+00
             0.0000000000000000E+00    0.0000000000000000E+00    0.0000000000000000E+00
             0.0000000000000000E+00    0.0000000000000000E+00    0.0000000000000000E+00
             0.0000000000000000E+00    0.0000000000000000E+00    0.0000000000000000E+00
             0.0000000000000000E+00    0.0000000000000000E+00    0.0000000000000000E+00
             0.0000000000000000E+00    0.0000000000000000E+00    0.0000000000000000E+00
             0.0000000000000000E+00    0.0000000000000000E+00    0.0000000000000000E+00
             0.0000000000000000E+00    0.0000000000000000E+00    0.0000000000000000E+00
             0.0000000000000000E+00    0.0000000000000000E+00    0.0000000000000000E+00
             0.0000000000000000E+00    0.0000000000000000E+00    0.0000000000000000E+00
             0.0000000000000000E+00    0.0000000000000000E+00    0.0000000000000000E+00
             0.0000000000000000E+00    0.0000000000000000E+00    0.0000000000000000E+00
             0.0000000000000000E+00    0.0000000000000000E+00    0.0000000000000000E+00
             0.0000000000000000E+00    0.0000000000000000E+00    0.0000000000000000E+00
             0.0000000000000000E+00    0.0000000000000000E+00    0.0000000000000000E+00
             0.0000000000000000E+00    0.0000000000000000E+00    0.0000000000000000E+00
             0.0000000000000000E+00    0.0000000000000000E+00    0.0000000000000000E+00
             0.0000000000000000E+00    0.0000000000000000E+00    0.0000000000000000E+00
             0.0000000000000000E+00    0.0000000000000000E+00    0.0000000000000000E+00
             0.0000000000000000E+00    0.0000000000000000E+00    0.0000000000000000E+00
             0.0000000000000000E+00    0.0000000000000000E+00    0.0000000000000000E+00
             0.0000000000000000E+00    0.0000000000000000E+00    0.0000000000000000E+00
             0.0000000000000000E+00    0.0000000000000000E+00    0.0000000000000000E+00
             0.0000000000000000E+00    0.0000000000000000E+00    0.0000000000000000E+00
             0.0000000000000000E+00    0.0000000000000000E+00    0.0000000000000000E+00
             0.0000000000000000E+00    0.0000000000000000E+00    0.0000000000000000E+00
             0.0000000000000000E+00    0.0000000000000000E+00    0.0000000000000000E+00
             0.0000000000000000E+00    0.0000000000000000E+00    0.0000000000000000E+00
             0.0000000000000000E+00    0.0000000000000000E+00    0.0000000000000000E+00
             0.0000000000000000E+00    0.0000000000000000E+00    0.0000000000000000E+00
             0.0000000000000000E+00    0.0000000000000000E+00    0.0000000000000000E+00
             0.0000000000000000E+00    0.0000000000000000E+00    0.0000000000000000E+00
             0.0000000000000000E+00    0.0000000000000000E+00    0.0000000000000000E+00
             0.0000000000000000E+00    0.0000000000000000E+00    0.0000000000000000E+00
             0.0000000000000000E+00    0.0000000000000000E+00    0.0000000000000000E+00
             0.0000000000000000E+00    0.0000000000000000E+00    0.0000000000000000E+00
             0.0000000000000000E+00    0.0000000000000000E+00    0.0000000000000000E+00
             0.0000000000000000E+00    0.0000000000000000E+00    0.0000000000000000E+00
             0.0000000000000000E+00    0.0000000000000000E+00    0.0000000000000000E+00
             0.0000000000000000E+00    0.0000000000000000E+00    0.0000000000000000E+00
             0.0000000000000000E+00    0.0000000000000000E+00    0.0000000000000000E+00
             0.0000000000000000E+00    0.0000000000000000E+00    0.0000000000000000E+00
             0.0000000000000000E+00    0.0000000000000000E+00    0.0000000000000000E+00
             0.0000000000000000E+00    0.0000000000000000E+00    0.0000000000000000E+00
             0.0000000000000000E+00    0.0000000000000000E+00    0.0000000000000000E+00
             0.0000000000000000E+00    0.0000000000000000E+00    0.0000000000000000E+00
             0.0000000000000000E+00    0.0000000000000000E+00    0.0000000000000000E+00