 # Version information for this restart file 
 # current date 2024-01-13 04:27:23.735
 # current working dir /gpfs/home/cahart/transport/melamine/au_from-h2/ci-neb/ts1/dft_leads-sz_tip-dzvp_surf-dzvp_kpoints-2-4-20_replicas-5
 # Program compiled at                              Thu 21 Sep 19:20:17 BST 2023
 # Program compiled on                                           hx1-c12-login-1
 # Program compiled for                                                    local
 # Source code revision number                                       git:5518aa6
 &GLOBAL
   EXTENDED_FFT_LENGTHS  T
   PRINT_LEVEL  MEDIUM
   PROJECT_NAME 2_dft_wfn-r-0
   OUTPUT_FILE_NAME 2_dft_wfn-r-0.out
   RUN_TYPE  BAND
 &END GLOBAL
 &MOTION
   &BAND
     NPROC_REP  64
     BAND_TYPE  CI-NEB
     NUMBER_OF_REPLICA  5
     K_SPRING     5.0000000000000003E-02
     &CI_NEB
       NSTEPS_IT  5
     &END CI_NEB
     &OPTIMIZE_BAND
       OPT_TYPE  DIIS
       &DIIS
         MAX_STEPS  1000
       &END DIIS
     &END OPTIMIZE_BAND
     &REPLICA
       &COORD
             0.0000000000000000E+00    0.0000000000000000E+00    0.0000000000000000E+00
             0.0000000000000000E+00    2.9550000000000427E+00    0.0000000000000000E+00
             0.0000000000000000E+00    5.9110000000000822E+00    0.0000000000000000E+00
             2.9560000000000444E+00    0.0000000000000000E+00    0.0000000000000000E+00
             2.9560000000000444E+00    2.9550000000000427E+00    0.0000000000000000E+00
             2.9560000000000444E+00    5.9110000000000822E+00    0.0000000000000000E+00
             5.9120000000000887E+00    0.0000000000000000E+00    0.0000000000000000E+00
             5.9120000000000887E+00    2.9550000000000427E+00    0.0000000000000000E+00
             5.9120000000000887E+00    5.9110000000000822E+00    0.0000000000000000E+00
             8.6700000000001385E+00    0.0000000000000000E+00    0.0000000000000000E+00
             8.6700000000001385E+00    2.9550000000000427E+00    0.0000000000000000E+00
             8.6700000000001385E+00    5.9110000000000822E+00    0.0000000000000000E+00
             1.1626000000000175E+01    0.0000000000000000E+00    0.0000000000000000E+00
             1.1626000000000175E+01    2.9550000000000427E+00    0.0000000000000000E+00
             1.1626000000000175E+01    5.9110000000000822E+00    0.0000000000000000E+00
             1.4780000000000222E+00    1.4780000000000222E+00    2.0900000000000305E+00
             1.4780000000000222E+00    4.4330000000000664E+00    2.0900000000000305E+00
             1.4780000000000222E+00    7.3890000000001086E+00    2.0900000000000305E+00
             4.4340000000000677E+00    1.4780000000000222E+00    2.0900000000000305E+00
             4.4340000000000677E+00    4.4330000000000664E+00    2.0900000000000305E+00
             4.4340000000000677E+00    7.3890000000001086E+00    2.0900000000000305E+00
             7.1920000000001068E+00    1.4780000000000222E+00    2.0900000000000305E+00
             7.1920000000001068E+00    4.4330000000000664E+00    2.0900000000000305E+00
             7.1920000000001068E+00    7.3890000000001086E+00    2.0900000000000305E+00
             1.0148000000000151E+01    1.4780000000000222E+00    2.0900000000000305E+00
             1.0148000000000151E+01    4.4330000000000664E+00    2.0900000000000305E+00
             1.0148000000000151E+01    7.3890000000001086E+00    2.0900000000000305E+00
             1.3104000000000187E+01    1.4780000000000222E+00    2.0900000000000305E+00
             1.3104000000000187E+01    4.4330000000000664E+00    2.0900000000000305E+00
             1.3104000000000187E+01    7.3890000000001086E+00    2.0900000000000305E+00
             0.0000000000000000E+00    0.0000000000000000E+00    4.1800000000000610E+00
             0.0000000000000000E+00    2.9550000000000427E+00    4.1800000000000610E+00
             0.0000000000000000E+00    5.9110000000000822E+00    4.1800000000000610E+00
             2.9560000000000444E+00    0.0000000000000000E+00    4.1800000000000610E+00
             2.9560000000000444E+00    2.9550000000000427E+00    4.1800000000000610E+00
             2.9560000000000444E+00    5.9110000000000822E+00    4.1800000000000610E+00
             5.9120000000000887E+00    0.0000000000000000E+00    4.1800000000000610E+00
             5.9120000000000887E+00    2.9550000000000427E+00    4.1800000000000610E+00
             5.9120000000000887E+00    5.9110000000000822E+00    4.1800000000000610E+00
             8.6700000000001385E+00    0.0000000000000000E+00    4.1800000000000610E+00
             8.6700000000001385E+00    2.9550000000000427E+00    4.1800000000000610E+00
             8.6700000000001385E+00    5.9110000000000822E+00    4.1800000000000610E+00
             1.1626000000000175E+01    0.0000000000000000E+00    4.1800000000000610E+00
             1.1626000000000175E+01    2.9550000000000427E+00    4.1800000000000610E+00
             1.1626000000000175E+01    5.9110000000000822E+00    4.1800000000000610E+00
             1.4780000000000222E+00    1.4780000000000222E+00    6.2700000000000911E+00
             1.4780000000000222E+00    4.4330000000000664E+00    6.2700000000000911E+00
             1.4780000000000222E+00    7.3890000000001086E+00    6.2700000000000911E+00
             4.4340000000000677E+00    1.4780000000000222E+00    6.2700000000000911E+00
             4.4340000000000677E+00    4.4330000000000664E+00    6.2700000000000911E+00
             4.4340000000000677E+00    7.3890000000001086E+00    6.2700000000000911E+00
             7.1920000000001068E+00    1.4780000000000222E+00    6.2700000000000911E+00
             7.1920000000001068E+00    4.4330000000000664E+00    6.2700000000000911E+00
             7.1920000000001068E+00    7.3890000000001086E+00    6.2700000000000911E+00
             1.0148000000000151E+01    1.4780000000000222E+00    6.2700000000000911E+00
             1.0148000000000151E+01    4.4330000000000664E+00    6.2700000000000911E+00
             1.0148000000000151E+01    7.3890000000001086E+00    6.2700000000000911E+00
             1.3104000000000187E+01    1.4780000000000222E+00    6.2700000000000911E+00
             1.3104000000000187E+01    4.4330000000000664E+00    6.2700000000000911E+00
             1.3104000000000187E+01    7.3890000000001086E+00    6.2700000000000911E+00
             0.0000000000000000E+00    0.0000000000000000E+00    8.3600000000001220E+00
             0.0000000000000000E+00    2.9550000000000427E+00    8.3600000000001220E+00
             0.0000000000000000E+00    5.9110000000000822E+00    8.3600000000001220E+00
             2.9560000000000444E+00    0.0000000000000000E+00    8.3600000000001220E+00
             2.9560000000000444E+00    2.9550000000000427E+00    8.3600000000001220E+00
             2.9560000000000444E+00    5.9110000000000822E+00    8.3600000000001220E+00
             5.9120000000000887E+00    0.0000000000000000E+00    8.3600000000001220E+00
             5.9120000000000887E+00    2.9550000000000427E+00    8.3600000000001220E+00
             5.9120000000000887E+00    5.9110000000000822E+00    8.3600000000001220E+00
             8.6700000000001385E+00    0.0000000000000000E+00    8.3600000000001220E+00
             8.6700000000001385E+00    2.9550000000000427E+00    8.3600000000001220E+00
             8.6700000000001385E+00    5.9110000000000822E+00    8.3600000000001220E+00
             1.1626000000000175E+01    0.0000000000000000E+00    8.3600000000001220E+00
             1.1626000000000175E+01    2.9550000000000427E+00    8.3600000000001220E+00
             1.1626000000000175E+01    5.9110000000000822E+00    8.3600000000001220E+00
             1.4780000000000222E+00    1.4780000000000222E+00    1.0450000000000154E+01
             1.4780000000000222E+00    4.4330000000000664E+00    1.0450000000000154E+01
             1.4780000000000222E+00    7.3890000000001086E+00    1.0450000000000154E+01
             4.4340000000000677E+00    1.4780000000000222E+00    1.0450000000000154E+01
             4.4340000000000677E+00    4.4330000000000664E+00    1.0450000000000154E+01
             4.4340000000000677E+00    7.3890000000001086E+00    1.0450000000000154E+01
             7.1920000000001068E+00    1.4780000000000222E+00    1.0450000000000154E+01
             7.1920000000001068E+00    4.4330000000000664E+00    1.0450000000000154E+01
             7.1920000000001068E+00    7.3890000000001086E+00    1.0450000000000154E+01
             1.0148000000000151E+01    1.4780000000000222E+00    1.0450000000000154E+01
             1.0148000000000151E+01    4.4330000000000664E+00    1.0450000000000154E+01
             1.0148000000000151E+01    7.3890000000001086E+00    1.0450000000000154E+01
             1.3104000000000187E+01    1.4780000000000222E+00    1.0450000000000154E+01
             1.3104000000000187E+01    4.4330000000000664E+00    1.0450000000000154E+01
             1.3104000000000187E+01    7.3890000000001086E+00    1.0450000000000154E+01
             4.8554000000000821E+00    5.9119000000000863E+00    1.2031800000000182E+01
             9.5280000000001426E+00    5.9137000000000857E+00    1.2034000000000187E+01
             7.1920000000001068E+00    5.9340000000000916E+00    1.2040000000000182E+01
             4.0750319168000582E+00    5.9049488170000908E+00    1.2696844061800187E+01
             1.0293988349500147E+01    5.9062142779000828E+00    1.2716532694500211E+01
             6.0099999686000949E+00    5.9120523853000888E+00    1.2765819797400191E+01
             8.3750478948001241E+00    5.9129627335000832E+00    1.2760746495900186E+01
             8.4047327065001252E+00    5.8893877816000861E+00    1.4094060897200190E+01
             5.9788500869000947E+00    5.8882515165000884E+00    1.4094239568500221E+01
             7.1943473363001056E+00    5.8799164377000821E+00    1.4701118490300221E+01
             7.1912293097001063E+00    5.8521058221000901E+00    1.6050622658200247E+01
             6.3086348447001015E+00    5.8615539361000932E+00    1.6548439365000259E+01
             8.0709262665001198E+00    5.8621389354000817E+00    1.6553588809700237E+01
             7.3120000000001077E+00    5.9340000000000916E+00    2.1043000000000298E+01
             5.8130000000000877E+00    7.4340000000001147E+00    2.2992000000000356E+01
             8.8130000000001267E+00    4.4340000000000677E+00    2.2992000000000356E+01
             5.8130000000000877E+00    4.4330000000000664E+00    2.2992000000000356E+01
             8.8130000000001267E+00    7.4340000000001147E+00    2.2992000000000356E+01
             1.4780000000000222E+00    1.4780000000000222E+00    2.5082000000000335E+01
             1.4780000000000222E+00    4.4330000000000664E+00    2.5082000000000335E+01
             1.4780000000000222E+00    7.3890000000001086E+00    2.5082000000000335E+01
             4.4340000000000677E+00    1.4780000000000222E+00    2.5082000000000335E+01
             4.4340000000000677E+00    4.4330000000000664E+00    2.5082000000000335E+01
             4.4340000000000677E+00    7.3890000000001086E+00    2.5082000000000335E+01
             7.1920000000001068E+00    1.4780000000000222E+00    2.5082000000000335E+01
             7.1920000000001068E+00    4.4330000000000664E+00    2.5082000000000335E+01
             7.1920000000001068E+00    7.3890000000001086E+00    2.5082000000000335E+01
             1.0148000000000151E+01    1.4780000000000222E+00    2.5082000000000335E+01
             1.0148000000000151E+01    4.4330000000000664E+00    2.5082000000000335E+01
             1.0148000000000151E+01    7.3890000000001086E+00    2.5082000000000335E+01
             1.3104000000000187E+01    1.4780000000000222E+00    2.5082000000000335E+01
             1.3104000000000187E+01    4.4330000000000664E+00    2.5082000000000335E+01
             1.3104000000000187E+01    7.3890000000001086E+00    2.5082000000000335E+01
             0.0000000000000000E+00    0.0000000000000000E+00    2.7172000000000406E+01
             0.0000000000000000E+00    2.9550000000000427E+00    2.7172000000000406E+01
             0.0000000000000000E+00    5.9110000000000822E+00    2.7172000000000406E+01
             2.9560000000000444E+00    0.0000000000000000E+00    2.7172000000000406E+01
             2.9560000000000444E+00    2.9550000000000427E+00    2.7172000000000406E+01
             2.9560000000000444E+00    5.9110000000000822E+00    2.7172000000000406E+01
             5.9120000000000887E+00    0.0000000000000000E+00    2.7172000000000406E+01
             5.9120000000000887E+00    2.9550000000000427E+00    2.7172000000000406E+01
             5.9120000000000887E+00    5.9110000000000822E+00    2.7172000000000406E+01
             8.6700000000001385E+00    0.0000000000000000E+00    2.7172000000000406E+01
             8.6700000000001385E+00    2.9550000000000427E+00    2.7172000000000406E+01
             8.6700000000001385E+00    5.9110000000000822E+00    2.7172000000000406E+01
             1.1626000000000175E+01    0.0000000000000000E+00    2.7172000000000406E+01
             1.1626000000000175E+01    2.9550000000000427E+00    2.7172000000000406E+01
             1.1626000000000175E+01    5.9110000000000822E+00    2.7172000000000406E+01
             1.4780000000000222E+00    1.4780000000000222E+00    2.9262000000000405E+01
             1.4780000000000222E+00    4.4330000000000664E+00    2.9262000000000405E+01
             1.4780000000000222E+00    7.3890000000001086E+00    2.9262000000000405E+01
             4.4340000000000677E+00    1.4780000000000222E+00    2.9262000000000405E+01
             4.4340000000000677E+00    4.4330000000000664E+00    2.9262000000000405E+01
             4.4340000000000677E+00    7.3890000000001086E+00    2.9262000000000405E+01
             7.1920000000001068E+00    1.4780000000000222E+00    2.9262000000000405E+01
             7.1920000000001068E+00    4.4330000000000664E+00    2.9262000000000405E+01
             7.1920000000001068E+00    7.3890000000001086E+00    2.9262000000000405E+01
             1.0148000000000151E+01    1.4780000000000222E+00    2.9262000000000405E+01
             1.0148000000000151E+01    4.4330000000000664E+00    2.9262000000000405E+01
             1.0148000000000151E+01    7.3890000000001086E+00    2.9262000000000405E+01
             1.3104000000000187E+01    1.4780000000000222E+00    2.9262000000000405E+01
             1.3104000000000187E+01    4.4330000000000664E+00    2.9262000000000405E+01
             1.3104000000000187E+01    7.3890000000001086E+00    2.9262000000000405E+01
             0.0000000000000000E+00    0.0000000000000000E+00    3.1352000000000462E+01
             0.0000000000000000E+00    2.9550000000000427E+00    3.1352000000000462E+01
             0.0000000000000000E+00    5.9110000000000822E+00    3.1352000000000462E+01
             2.9560000000000444E+00    0.0000000000000000E+00    3.1352000000000462E+01
             2.9560000000000444E+00    2.9550000000000427E+00    3.1352000000000462E+01
             2.9560000000000444E+00    5.9110000000000822E+00    3.1352000000000462E+01
             5.9120000000000887E+00    0.0000000000000000E+00    3.1352000000000462E+01
             5.9120000000000887E+00    2.9550000000000427E+00    3.1352000000000462E+01
             5.9120000000000887E+00    5.9110000000000822E+00    3.1352000000000462E+01
             8.6700000000001385E+00    0.0000000000000000E+00    3.1352000000000462E+01
             8.6700000000001385E+00    2.9550000000000427E+00    3.1352000000000462E+01
             8.6700000000001385E+00    5.9110000000000822E+00    3.1352000000000462E+01
             1.1626000000000175E+01    0.0000000000000000E+00    3.1352000000000462E+01
             1.1626000000000175E+01    2.9550000000000427E+00    3.1352000000000462E+01
             1.1626000000000175E+01    5.9110000000000822E+00    3.1352000000000462E+01
             1.4780000000000222E+00    1.4780000000000222E+00    3.3442000000000505E+01
             1.4780000000000222E+00    4.4330000000000664E+00    3.3442000000000505E+01
             1.4780000000000222E+00    7.3890000000001086E+00    3.3442000000000505E+01
             4.4340000000000677E+00    1.4780000000000222E+00    3.3442000000000505E+01
             4.4340000000000677E+00    4.4330000000000664E+00    3.3442000000000505E+01
             4.4340000000000677E+00    7.3890000000001086E+00    3.3442000000000505E+01
             7.1920000000001068E+00    1.4780000000000222E+00    3.3442000000000505E+01
             7.1920000000001068E+00    4.4330000000000664E+00    3.3442000000000505E+01
             7.1920000000001068E+00    7.3890000000001086E+00    3.3442000000000505E+01
             1.0148000000000151E+01    1.4780000000000222E+00    3.3442000000000505E+01
             1.0148000000000151E+01    4.4330000000000664E+00    3.3442000000000505E+01
             1.0148000000000151E+01    7.3890000000001086E+00    3.3442000000000505E+01
             1.3104000000000187E+01    1.4780000000000222E+00    3.3442000000000505E+01
             1.3104000000000187E+01    4.4330000000000664E+00    3.3442000000000505E+01
             1.3104000000000187E+01    7.3890000000001086E+00    3.3442000000000505E+01
       &END COORD
       &VELOCITY
             0.0000000000000000E+00    0.0000000000000000E+00    0.0000000000000000E+00
             0.0000000000000000E+00    0.0000000000000000E+00    0.0000000000000000E+00
             0.0000000000000000E+00    0.0000000000000000E+00    0.0000000000000000E+00
             0.0000000000000000E+00    0.0000000000000000E+00    0.0000000000000000E+00
             0.0000000000000000E+00    0.0000000000000000E+00    0.0000000000000000E+00
             0.0000000000000000E+00    0.0000000000000000E+00    0.0000000000000000E+00
             0.0000000000000000E+00    0.0000000000000000E+00    0.0000000000000000E+00
             0.0000000000000000E+00    0.0000000000000000E+00    0.0000000000000000E+00
             0.0000000000000000E+00    0.0000000000000000E+00    0.0000000000000000E+00
             0.0000000000000000E+00    0.0000000000000000E+00    0.0000000000000000E+00
             0.0000000000000000E+00    0.0000000000000000E+00    0.0000000000000000E+00
             0.0000000000000000E+00    0.0000000000000000E+00    0.0000000000000000E+00
             0.0000000000000000E+00    0.0000000000000000E+00    0.0000000000000000E+00
             0.0000000000000000E+00    0.0000000000000000E+00    0.0000000000000000E+00
             0.0000000000000000E+00    0.0000000000000000E+00    0.0000000000000000E+00
             0.0000000000000000E+00    0.0000000000000000E+00    0.0000000000000000E+00
             0.0000000000000000E+00    0.0000000000000000E+00    0.0000000000000000E+00
             0.0000000000000000E+00    0.0000000000000000E+00    0.0000000000000000E+00
             0.0000000000000000E+00    0.0000000000000000E+00    0.0000000000000000E+00
             0.0000000000000000E+00    0.0000000000000000E+00    0.0000000000000000E+00
             0.0000000000000000E+00    0.0000000000000000E+00    0.0000000000000000E+00
             0.0000000000000000E+00    0.0000000000000000E+00    0.0000000000000000E+00
             0.0000000000000000E+00    0.0000000000000000E+00    0.0000000000000000E+00
             0.0000000000000000E+00    0.0000000000000000E+00    0.0000000000000000E+00
             0.0000000000000000E+00    0.0000000000000000E+00    0.0000000000000000E+00
             0.0000000000000000E+00    0.0000000000000000E+00    0.0000000000000000E+00
             0.0000000000000000E+00    0.0000000000000000E+00    0.0000000000000000E+00
             0.0000000000000000E+00    0.0000000000000000E+00    0.0000000000000000E+00
             0.0000000000000000E+00    0.0000000000000000E+00    0.0000000000000000E+00
             0.0000000000000000E+00    0.0000000000000000E+00    0.0000000000000000E+00
             0.0000000000000000E+00    0.0000000000000000E+00    0.0000000000000000E+00
             0.0000000000000000E+00    0.0000000000000000E+00    0.0000000000000000E+00
             0.0000000000000000E+00    0.0000000000000000E+00    0.0000000000000000E+00
             0.0000000000000000E+00    0.0000000000000000E+00    0.0000000000000000E+00
             0.0000000000000000E+00    0.0000000000000000E+00    0.0000000000000000E+00
             0.0000000000000000E+00    0.0000000000000000E+00    0.0000000000000000E+00
             0.0000000000000000E+00    0.0000000000000000E+00    0.0000000000000000E+00
             0.0000000000000000E+00    0.0000000000000000E+00    0.0000000000000000E+00
             0.0000000000000000E+00    0.0000000000000000E+00    0.0000000000000000E+00
             0.0000000000000000E+00    0.0000000000000000E+00    0.0000000000000000E+00
             0.0000000000000000E+00    0.0000000000000000E+00    0.0000000000000000E+00
             0.0000000000000000E+00    0.0000000000000000E+00    0.0000000000000000E+00
             0.0000000000000000E+00    0.0000000000000000E+00    0.0000000000000000E+00
             0.0000000000000000E+00    0.0000000000000000E+00    0.0000000000000000E+00
             0.0000000000000000E+00    0.0000000000000000E+00    0.0000000000000000E+00
             0.0000000000000000E+00    0.0000000000000000E+00    0.0000000000000000E+00
             0.0000000000000000E+00    0.0000000000000000E+00    0.0000000000000000E+00
             0.0000000000000000E+00    0.0000000000000000E+00    0.0000000000000000E+00
             0.0000000000000000E+00    0.0000000000000000E+00    0.0000000000000000E+00
             0.0000000000000000E+00    0.0000000000000000E+00    0.0000000000000000E+00
             0.0000000000000000E+00    0.0000000000000000E+00    0.0000000000000000E+00
             0.0000000000000000E+00    0.0000000000000000E+00    0.0000000000000000E+00
             0.0000000000000000E+00    0.0000000000000000E+00    0.0000000000000000E+00
             0.0000000000000000E+00    0.0000000000000000E+00    0.0000000000000000E+00
             0.0000000000000000E+00    0.0000000000000000E+00    0.0000000000000000E+00
             0.0000000000000000E+00    0.0000000000000000E+00    0.0000000000000000E+00
             0.0000000000000000E+00    0.0000000000000000E+00    0.0000000000000000E+00
             0.0000000000000000E+00    0.0000000000000000E+00    0.0000000000000000E+00
             0.0000000000000000E+00    0.0000000000000000E+00    0.0000000000000000E+00
             0.0000000000000000E+00    0.0000000000000000E+00    0.0000000000000000E+00
             0.0000000000000000E+00    0.0000000000000000E+00    0.0000000000000000E+00
             0.0000000000000000E+00    0.0000000000000000E+00    0.0000000000000000E+00
             0.0000000000000000E+00    0.0000000000000000E+00    0.0000000000000000E+00
             0.0000000000000000E+00    0.0000000000000000E+00    0.0000000000000000E+00
             0.0000000000000000E+00    0.0000000000000000E+00    0.0000000000000000E+00
             0.0000000000000000E+00    0.0000000000000000E+00    0.0000000000000000E+00
             0.0000000000000000E+00    0.0000000000000000E+00    0.0000000000000000E+00
             0.0000000000000000E+00    0.0000000000000000E+00    0.0000000000000000E+00
             0.0000000000000000E+00    0.0000000000000000E+00    0.0000000000000000E+00
             0.0000000000000000E+00    0.0000000000000000E+00    0.0000000000000000E+00
             0.0000000000000000E+00    0.0000000000000000E+00    0.0000000000000000E+00
             0.0000000000000000E+00    0.0000000000000000E+00    0.0000000000000000E+00
             0.0000000000000000E+00    0.0000000000000000E+00    0.0000000000000000E+00
             0.0000000000000000E+00    0.0000000000000000E+00    0.0000000000000000E+00
             0.0000000000000000E+00    0.0000000000000000E+00    0.0000000000000000E+00
             0.0000000000000000E+00    0.0000000000000000E+00    0.0000000000000000E+00
             0.0000000000000000E+00    0.0000000000000000E+00    0.0000000000000000E+00
             0.0000000000000000E+00    0.0000000000000000E+00    0.0000000000000000E+00
             0.0000000000000000E+00    0.0000000000000000E+00    0.0000000000000000E+00
             0.0000000000000000E+00    0.0000000000000000E+00    0.0000000000000000E+00
             0.0000000000000000E+00    0.0000000000000000E+00    0.0000000000000000E+00
             0.0000000000000000E+00    0.0000000000000000E+00    0.0000000000000000E+00
             0.0000000000000000E+00    0.0000000000000000E+00    0.0000000000000000E+00
             0.0000000000000000E+00    0.0000000000000000E+00    0.0000000000000000E+00
             0.0000000000000000E+00    0.0000000000000000E+00    0.0000000000000000E+00
             0.0000000000000000E+00    0.0000000000000000E+00    0.0000000000000000E+00
             0.0000000000000000E+00    0.0000000000000000E+00    0.0000000000000000E+00
             0.0000000000000000E+00    0.0000000000000000E+00    0.0000000000000000E+00
             0.0000000000000000E+00    0.0000000000000000E+00    0.0000000000000000E+00
             0.0000000000000000E+00    0.0000000000000000E+00    0.0000000000000000E+00
             0.0000000000000000E+00    0.0000000000000000E+00    0.0000000000000000E+00
             0.0000000000000000E+00    0.0000000000000000E+00    0.0000000000000000E+00
             0.0000000000000000E+00    0.0000000000000000E+00    0.0000000000000000E+00
             0.0000000000000000E+00    0.0000000000000000E+00    0.0000000000000000E+00
             0.0000000000000000E+00    0.0000000000000000E+00    0.0000000000000000E+00
             0.0000000000000000E+00    0.0000000000000000E+00    0.0000000000000000E+00
             0.0000000000000000E+00    0.0000000000000000E+00    0.0000000000000000E+00
             0.0000000000000000E+00    0.0000000000000000E+00    0.0000000000000000E+00
             0.0000000000000000E+00    0.0000000000000000E+00    0.0000000000000000E+00
             0.0000000000000000E+00    0.0000000000000000E+00    0.0000000000000000E+00
             0.0000000000000000E+00    0.0000000000000000E+00    0.0000000000000000E+00
             0.0000000000000000E+00    0.0000000000000000E+00    0.0000000000000000E+00
             0.0000000000000000E+00    0.0000000000000000E+00    0.0000000000000000E+00
             0.0000000000000000E+00    0.0000000000000000E+00    0.0000000000000000E+00
             0.0000000000000000E+00    0.0000000000000000E+00    0.0000000000000000E+00
             0.0000000000000000E+00    0.0000000000000000E+00    0.0000000000000000E+00
             0.0000000000000000E+00    0.0000000000000000E+00    0.0000000000000000E+00
             0.0000000000000000E+00    0.0000000000000000E+00    0.0000000000000000E+00
             0.0000000000000000E+00    0.0000000000000000E+00    0.0000000000000000E+00
             0.0000000000000000E+00    0.0000000000000000E+00    0.0000000000000000E+00
             0.0000000000000000E+00    0.0000000000000000E+00    0.0000000000000000E+00
             0.0000000000000000E+00    0.0000000000000000E+00    0.0000000000000000E+00
             0.0000000000000000E+00    0.0000000000000000E+00    0.0000000000000000E+00
             0.0000000000000000E+00    0.0000000000000000E+00    0.0000000000000000E+00
             0.0000000000000000E+00    0.0000000000000000E+00    0.0000000000000000E+00
             0.0000000000000000E+00    0.0000000000000000E+00    0.0000000000000000E+00
             0.0000000000000000E+00    0.0000000000000000E+00    0.0000000000000000E+00
             0.0000000000000000E+00    0.0000000000000000E+00    0.0000000000000000E+00
             0.0000000000000000E+00    0.0000000000000000E+00    0.0000000000000000E+00
             0.0000000000000000E+00    0.0000000000000000E+00    0.0000000000000000E+00
             0.0000000000000000E+00    0.0000000000000000E+00    0.0000000000000000E+00
             0.0000000000000000E+00    0.0000000000000000E+00    0.0000000000000000E+00
             0.0000000000000000E+00    0.0000000000000000E+00    0.0000000000000000E+00
             0.0000000000000000E+00    0.0000000000000000E+00    0.0000000000000000E+00
             0.0000000000000000E+00    0.0000000000000000E+00    0.0000000000000000E+00
             0.0000000000000000E+00    0.0000000000000000E+00    0.0000000000000000E+00
             0.0000000000000000E+00    0.0000000000000000E+00    0.0000000000000000E+00
             0.0000000000000000E+00    0.0000000000000000E+00    0.0000000000000000E+00
             0.0000000000000000E+00    0.0000000000000000E+00    0.0000000000000000E+00
             0.0000000000000000E+00    0.0000000000000000E+00    0.0000000000000000E+00
             0.0000000000000000E+00    0.0000000000000000E+00    0.0000000000000000E+00
             0.0000000000000000E+00    0.0000000000000000E+00    0.0000000000000000E+00
             0.0000000000000000E+00    0.0000000000000000E+00    0.0000000000000000E+00
             0.0000000000000000E+00    0.0000000000000000E+00    0.0000000000000000E+00
             0.0000000000000000E+00    0.0000000000000000E+00    0.0000000000000000E+00
             0.0000000000000000E+00    0.0000000000000000E+00    0.0000000000000000E+00
             0.0000000000000000E+00    0.0000000000000000E+00    0.0000000000000000E+00
             0.0000000000000000E+00    0.0000000000000000E+00    0.0000000000000000E+00
             0.0000000000000000E+00    0.0000000000000000E+00    0.0000000000000000E+00
             0.0000000000000000E+00    0.0000000000000000E+00    0.0000000000000000E+00
             0.0000000000000000E+00    0.0000000000000000E+00    0.0000000000000000E+00
             0.0000000000000000E+00    0.0000000000000000E+00    0.0000000000000000E+00
             0.0000000000000000E+00    0.0000000000000000E+00    0.0000000000000000E+00
             0.0000000000000000E+00    0.0000000000000000E+00    0.0000000000000000E+00
             0.0000000000000000E+00    0.0000000000000000E+00    0.0000000000000000E+00