 # Version information for this restart file 
 # current date 2024-01-12 14:12:33.508
 # current working dir /gpfs/home/cahart/transport/melamine/au_from-h2/ci-neb/ts1/dft_leads-sz_tip-dzvp_surf-dzvp_kpoints-2-4-20_replicas-5
 # Program compiled at                              Thu 21 Sep 19:20:17 BST 2023
 # Program compiled on                                           hx1-c12-login-1
 # Program compiled for                                                    local
 # Source code revision number                                       git:5518aa6
 &GLOBAL
   EXTENDED_FFT_LENGTHS  T
   PRINT_LEVEL  MEDIUM
   PROJECT_NAME 2_dft_wfn-r-0
   OUTPUT_FILE_NAME 2_dft_wfn-r-0.out
   RUN_TYPE  BAND
 &END GLOBAL
 &MOTION
   &BAND
     NPROC_REP  64
     BAND_TYPE  CI-NEB
     NUMBER_OF_REPLICA  5
     K_SPRING     5.0000000000000003E-02
     &CI_NEB
       NSTEPS_IT  5
     &END CI_NEB
     &OPTIMIZE_BAND
       OPT_TYPE  DIIS
       &DIIS
         MAX_STEPS  1000
       &END DIIS
     &END OPTIMIZE_BAND
     &REPLICA
       &COORD
             0.0000000000000000E+00    0.0000000000000000E+00    0.0000000000000000E+00
             0.0000000000000000E+00    2.9550000000000125E+00    0.0000000000000000E+00
             0.0000000000000000E+00    5.9110000000000245E+00    0.0000000000000000E+00
             2.9560000000000115E+00    0.0000000000000000E+00    0.0000000000000000E+00
             2.9560000000000115E+00    2.9550000000000125E+00    0.0000000000000000E+00
             2.9560000000000115E+00    5.9110000000000245E+00    0.0000000000000000E+00
             5.9120000000000230E+00    0.0000000000000000E+00    0.0000000000000000E+00
             5.9120000000000230E+00    2.9550000000000125E+00    0.0000000000000000E+00
             5.9120000000000230E+00    5.9110000000000245E+00    0.0000000000000000E+00
             8.6700000000000337E+00    0.0000000000000000E+00    0.0000000000000000E+00
             8.6700000000000337E+00    2.9550000000000125E+00    0.0000000000000000E+00
             8.6700000000000337E+00    5.9110000000000245E+00    0.0000000000000000E+00
             1.1626000000000053E+01    0.0000000000000000E+00    0.0000000000000000E+00
             1.1626000000000053E+01    2.9550000000000125E+00    0.0000000000000000E+00
             1.1626000000000053E+01    5.9110000000000245E+00    0.0000000000000000E+00
             1.4780000000000058E+00    1.4780000000000058E+00    2.0900000000000079E+00
             1.4780000000000058E+00    4.4330000000000185E+00    2.0900000000000079E+00
             1.4780000000000058E+00    7.3890000000000313E+00    2.0900000000000079E+00
             4.4340000000000170E+00    1.4780000000000058E+00    2.0900000000000079E+00
             4.4340000000000170E+00    4.4330000000000185E+00    2.0900000000000079E+00
             4.4340000000000170E+00    7.3890000000000313E+00    2.0900000000000079E+00
             7.1920000000000321E+00    1.4780000000000058E+00    2.0900000000000079E+00
             7.1920000000000321E+00    4.4330000000000185E+00    2.0900000000000079E+00
             7.1920000000000321E+00    7.3890000000000313E+00    2.0900000000000079E+00
             1.0148000000000039E+01    1.4780000000000058E+00    2.0900000000000079E+00
             1.0148000000000039E+01    4.4330000000000185E+00    2.0900000000000079E+00
             1.0148000000000039E+01    7.3890000000000313E+00    2.0900000000000079E+00
             1.3104000000000051E+01    1.4780000000000058E+00    2.0900000000000079E+00
             1.3104000000000051E+01    4.4330000000000185E+00    2.0900000000000079E+00
             1.3104000000000051E+01    7.3890000000000313E+00    2.0900000000000079E+00
             0.0000000000000000E+00    0.0000000000000000E+00    4.1800000000000157E+00
             0.0000000000000000E+00    2.9550000000000125E+00    4.1800000000000157E+00
             0.0000000000000000E+00    5.9110000000000245E+00    4.1800000000000157E+00
             2.9560000000000115E+00    0.0000000000000000E+00    4.1800000000000157E+00
             2.9560000000000115E+00    2.9550000000000125E+00    4.1800000000000157E+00
             2.9560000000000115E+00    5.9110000000000245E+00    4.1800000000000157E+00
             5.9120000000000230E+00    0.0000000000000000E+00    4.1800000000000157E+00
             5.9120000000000230E+00    2.9550000000000125E+00    4.1800000000000157E+00
             5.9120000000000230E+00    5.9110000000000245E+00    4.1800000000000157E+00
             8.6700000000000337E+00    0.0000000000000000E+00    4.1800000000000157E+00
             8.6700000000000337E+00    2.9550000000000125E+00    4.1800000000000157E+00
             8.6700000000000337E+00    5.9110000000000245E+00    4.1800000000000157E+00
             1.1626000000000053E+01    0.0000000000000000E+00    4.1800000000000157E+00
             1.1626000000000053E+01    2.9550000000000125E+00    4.1800000000000157E+00
             1.1626000000000053E+01    5.9110000000000245E+00    4.1800000000000157E+00
             1.4780000000000058E+00    1.4780000000000058E+00    6.2700000000000236E+00
             1.4780000000000058E+00    4.4330000000000185E+00    6.2700000000000236E+00
             1.4780000000000058E+00    7.3890000000000313E+00    6.2700000000000236E+00
             4.4340000000000170E+00    1.4780000000000058E+00    6.2700000000000236E+00
             4.4340000000000170E+00    4.4330000000000185E+00    6.2700000000000236E+00
             4.4340000000000170E+00    7.3890000000000313E+00    6.2700000000000236E+00
             7.1920000000000321E+00    1.4780000000000058E+00    6.2700000000000236E+00
             7.1920000000000321E+00    4.4330000000000185E+00    6.2700000000000236E+00
             7.1920000000000321E+00    7.3890000000000313E+00    6.2700000000000236E+00
             1.0148000000000039E+01    1.4780000000000058E+00    6.2700000000000236E+00
             1.0148000000000039E+01    4.4330000000000185E+00    6.2700000000000236E+00
             1.0148000000000039E+01    7.3890000000000313E+00    6.2700000000000236E+00
             1.3104000000000051E+01    1.4780000000000058E+00    6.2700000000000236E+00
             1.3104000000000051E+01    4.4330000000000185E+00    6.2700000000000236E+00
             1.3104000000000051E+01    7.3890000000000313E+00    6.2700000000000236E+00
             0.0000000000000000E+00    0.0000000000000000E+00    8.3600000000000314E+00
             0.0000000000000000E+00    2.9550000000000125E+00    8.3600000000000314E+00
             0.0000000000000000E+00    5.9110000000000245E+00    8.3600000000000314E+00
             2.9560000000000115E+00    0.0000000000000000E+00    8.3600000000000314E+00
             2.9560000000000115E+00    2.9550000000000125E+00    8.3600000000000314E+00
             2.9560000000000115E+00    5.9110000000000245E+00    8.3600000000000314E+00
             5.9120000000000230E+00    0.0000000000000000E+00    8.3600000000000314E+00
             5.9120000000000230E+00    2.9550000000000125E+00    8.3600000000000314E+00
             5.9120000000000230E+00    5.9110000000000245E+00    8.3600000000000314E+00
             8.6700000000000337E+00    0.0000000000000000E+00    8.3600000000000314E+00
             8.6700000000000337E+00    2.9550000000000125E+00    8.3600000000000314E+00
             8.6700000000000337E+00    5.9110000000000245E+00    8.3600000000000314E+00
             1.1626000000000053E+01    0.0000000000000000E+00    8.3600000000000314E+00
             1.1626000000000053E+01    2.9550000000000125E+00    8.3600000000000314E+00
             1.1626000000000053E+01    5.9110000000000245E+00    8.3600000000000314E+00
             1.4780000000000058E+00    1.4780000000000058E+00    1.0450000000000042E+01
             1.4780000000000058E+00    4.4330000000000185E+00    1.0450000000000042E+01
             1.4780000000000058E+00    7.3890000000000313E+00    1.0450000000000042E+01
             4.4340000000000170E+00    1.4780000000000058E+00    1.0450000000000042E+01
             4.4340000000000170E+00    4.4330000000000185E+00    1.0450000000000042E+01
             4.4340000000000170E+00    7.3890000000000313E+00    1.0450000000000042E+01
             7.1920000000000321E+00    1.4780000000000058E+00    1.0450000000000042E+01
             7.1920000000000321E+00    4.4330000000000185E+00    1.0450000000000042E+01
             7.1920000000000321E+00    7.3890000000000313E+00    1.0450000000000042E+01
             1.0148000000000039E+01    1.4780000000000058E+00    1.0450000000000042E+01
             1.0148000000000039E+01    4.4330000000000185E+00    1.0450000000000042E+01
             1.0148000000000039E+01    7.3890000000000313E+00    1.0450000000000042E+01
             1.3104000000000051E+01    1.4780000000000058E+00    1.0450000000000042E+01
             1.3104000000000051E+01    4.4330000000000185E+00    1.0450000000000042E+01
             1.3104000000000051E+01    7.3890000000000313E+00    1.0450000000000042E+01
             4.8554000000000217E+00    5.9119000000000259E+00    1.2031800000000054E+01
             9.5280000000000413E+00    5.9137000000000235E+00    1.2034000000000054E+01
             7.1920000000000321E+00    5.9340000000000250E+00    1.2040000000000045E+01
             4.0750319168000155E+00    5.9049488170000233E+00    1.2696844061800055E+01
             1.0293988349500037E+01    5.9062142779000215E+00    1.2716532694500053E+01
             6.0099999686000283E+00    5.9120523853000249E+00    1.2765819797400054E+01
             8.3750478948000335E+00    5.9129627335000210E+00    1.2760746495900053E+01
             8.4047327065000346E+00    5.8893877816000257E+00    1.4094060897200057E+01
             5.9788500869000236E+00    5.8882515165000235E+00    1.4094239568500058E+01
             7.1943473363000301E+00    5.8799164377000235E+00    1.4701118490300063E+01
             7.1912293097000282E+00    5.8521058221000262E+00    1.6050622658200066E+01
             6.3086348447000287E+00    5.8615539361000257E+00    1.6548439365000071E+01
             8.0709262665000328E+00    5.8621389354000240E+00    1.6553588809700070E+01
             7.3120000000000331E+00    5.9340000000000250E+00    2.1043000000000077E+01
             5.8130000000000264E+00    7.4340000000000312E+00    2.2992000000000090E+01
             8.8130000000000379E+00    4.4340000000000170E+00    2.2992000000000090E+01
             5.8130000000000264E+00    4.4330000000000185E+00    2.2992000000000090E+01
             8.8130000000000379E+00    7.4340000000000312E+00    2.2992000000000090E+01
             1.4780000000000058E+00    1.4780000000000058E+00    2.5082000000000100E+01
             1.4780000000000058E+00    4.4330000000000185E+00    2.5082000000000100E+01
             1.4780000000000058E+00    7.3890000000000313E+00    2.5082000000000100E+01
             4.4340000000000170E+00    1.4780000000000058E+00    2.5082000000000100E+01
             4.4340000000000170E+00    4.4330000000000185E+00    2.5082000000000100E+01
             4.4340000000000170E+00    7.3890000000000313E+00    2.5082000000000100E+01
             7.1920000000000321E+00    1.4780000000000058E+00    2.5082000000000100E+01
             7.1920000000000321E+00    4.4330000000000185E+00    2.5082000000000100E+01
             7.1920000000000321E+00    7.3890000000000313E+00    2.5082000000000100E+01
             1.0148000000000039E+01    1.4780000000000058E+00    2.5082000000000100E+01
             1.0148000000000039E+01    4.4330000000000185E+00    2.5082000000000100E+01
             1.0148000000000039E+01    7.3890000000000313E+00    2.5082000000000100E+01
             1.3104000000000051E+01    1.4780000000000058E+00    2.5082000000000100E+01
             1.3104000000000051E+01    4.4330000000000185E+00    2.5082000000000100E+01
             1.3104000000000051E+01    7.3890000000000313E+00    2.5082000000000100E+01
             0.0000000000000000E+00    0.0000000000000000E+00    2.7172000000000111E+01
             0.0000000000000000E+00    2.9550000000000125E+00    2.7172000000000111E+01
             0.0000000000000000E+00    5.9110000000000245E+00    2.7172000000000111E+01
             2.9560000000000115E+00    0.0000000000000000E+00    2.7172000000000111E+01
             2.9560000000000115E+00    2.9550000000000125E+00    2.7172000000000111E+01
             2.9560000000000115E+00    5.9110000000000245E+00    2.7172000000000111E+01
             5.9120000000000230E+00    0.0000000000000000E+00    2.7172000000000111E+01
             5.9120000000000230E+00    2.9550000000000125E+00    2.7172000000000111E+01
             5.9120000000000230E+00    5.9110000000000245E+00    2.7172000000000111E+01
             8.6700000000000337E+00    0.0000000000000000E+00    2.7172000000000111E+01
             8.6700000000000337E+00    2.9550000000000125E+00    2.7172000000000111E+01
             8.6700000000000337E+00    5.9110000000000245E+00    2.7172000000000111E+01
             1.1626000000000053E+01    0.0000000000000000E+00    2.7172000000000111E+01
             1.1626000000000053E+01    2.9550000000000125E+00    2.7172000000000111E+01
             1.1626000000000053E+01    5.9110000000000245E+00    2.7172000000000111E+01
             1.4780000000000058E+00    1.4780000000000058E+00    2.9262000000000118E+01
             1.4780000000000058E+00    4.4330000000000185E+00    2.9262000000000118E+01
             1.4780000000000058E+00    7.3890000000000313E+00    2.9262000000000118E+01
             4.4340000000000170E+00    1.4780000000000058E+00    2.9262000000000118E+01
             4.4340000000000170E+00    4.4330000000000185E+00    2.9262000000000118E+01
             4.4340000000000170E+00    7.3890000000000313E+00    2.9262000000000118E+01
             7.1920000000000321E+00    1.4780000000000058E+00    2.9262000000000118E+01
             7.1920000000000321E+00    4.4330000000000185E+00    2.9262000000000118E+01
             7.1920000000000321E+00    7.3890000000000313E+00    2.9262000000000118E+01
             1.0148000000000039E+01    1.4780000000000058E+00    2.9262000000000118E+01
             1.0148000000000039E+01    4.4330000000000185E+00    2.9262000000000118E+01
             1.0148000000000039E+01    7.3890000000000313E+00    2.9262000000000118E+01
             1.3104000000000051E+01    1.4780000000000058E+00    2.9262000000000118E+01
             1.3104000000000051E+01    4.4330000000000185E+00    2.9262000000000118E+01
             1.3104000000000051E+01    7.3890000000000313E+00    2.9262000000000118E+01
             0.0000000000000000E+00    0.0000000000000000E+00    3.1352000000000135E+01
             0.0000000000000000E+00    2.9550000000000125E+00    3.1352000000000135E+01
             0.0000000000000000E+00    5.9110000000000245E+00    3.1352000000000135E+01
             2.9560000000000115E+00    0.0000000000000000E+00    3.1352000000000135E+01
             2.9560000000000115E+00    2.9550000000000125E+00    3.1352000000000135E+01
             2.9560000000000115E+00    5.9110000000000245E+00    3.1352000000000135E+01
             5.9120000000000230E+00    0.0000000000000000E+00    3.1352000000000135E+01
             5.9120000000000230E+00    2.9550000000000125E+00    3.1352000000000135E+01
             5.9120000000000230E+00    5.9110000000000245E+00    3.1352000000000135E+01
             8.6700000000000337E+00    0.0000000000000000E+00    3.1352000000000135E+01
             8.6700000000000337E+00    2.9550000000000125E+00    3.1352000000000135E+01
             8.6700000000000337E+00    5.9110000000000245E+00    3.1352000000000135E+01
             1.1626000000000053E+01    0.0000000000000000E+00    3.1352000000000135E+01
             1.1626000000000053E+01    2.9550000000000125E+00    3.1352000000000135E+01
             1.1626000000000053E+01    5.9110000000000245E+00    3.1352000000000135E+01
             1.4780000000000058E+00    1.4780000000000058E+00    3.3442000000000149E+01
             1.4780000000000058E+00    4.4330000000000185E+00    3.3442000000000149E+01
             1.4780000000000058E+00    7.3890000000000313E+00    3.3442000000000149E+01
             4.4340000000000170E+00    1.4780000000000058E+00    3.3442000000000149E+01
             4.4340000000000170E+00    4.4330000000000185E+00    3.3442000000000149E+01
             4.4340000000000170E+00    7.3890000000000313E+00    3.3442000000000149E+01
             7.1920000000000321E+00    1.4780000000000058E+00    3.3442000000000149E+01
             7.1920000000000321E+00    4.4330000000000185E+00    3.3442000000000149E+01
             7.1920000000000321E+00    7.3890000000000313E+00    3.3442000000000149E+01
             1.0148000000000039E+01    1.4780000000000058E+00    3.3442000000000149E+01
             1.0148000000000039E+01    4.4330000000000185E+00    3.3442000000000149E+01
             1.0148000000000039E+01    7.3890000000000313E+00    3.3442000000000149E+01
             1.3104000000000051E+01    1.4780000000000058E+00    3.3442000000000149E+01
             1.3104000000000051E+01    4.4330000000000185E+00    3.3442000000000149E+01
             1.3104000000000051E+01    7.3890000000000313E+00    3.3442000000000149E+01
       &END COORD
       &VELOCITY
             0.0000000000000000E+00    0.0000000000000000E+00    0.0000000000000000E+00
             0.0000000000000000E+00    0.0000000000000000E+00    0.0000000000000000E+00
             0.0000000000000000E+00    0.0000000000000000E+00    0.0000000000000000E+00
             0.0000000000000000E+00    0.0000000000000000E+00    0.0000000000000000E+00
             0.0000000000000000E+00    0.0000000000000000E+00    0.0000000000000000E+00
             0.0000000000000000E+00    0.0000000000000000E+00    0.0000000000000000E+00
             0.0000000000000000E+00    0.0000000000000000E+00    0.0000000000000000E+00
             0.0000000000000000E+00    0.0000000000000000E+00    0.0000000000000000E+00
             0.0000000000000000E+00    0.0000000000000000E+00    0.0000000000000000E+00
             0.0000000000000000E+00    0.0000000000000000E+00    0.0000000000000000E+00
             0.0000000000000000E+00    0.0000000000000000E+00    0.0000000000000000E+00
             0.0000000000000000E+00    0.0000000000000000E+00    0.0000000000000000E+00
             0.0000000000000000E+00    0.0000000000000000E+00    0.0000000000000000E+00
             0.0000000000000000E+00    0.0000000000000000E+00    0.0000000000000000E+00
             0.0000000000000000E+00    0.0000000000000000E+00    0.0000000000000000E+00
             0.0000000000000000E+00    0.0000000000000000E+00    0.0000000000000000E+00
             0.0000000000000000E+00    0.0000000000000000E+00    0.0000000000000000E+00
             0.0000000000000000E+00    0.0000000000000000E+00    0.0000000000000000E+00
             0.0000000000000000E+00    0.0000000000000000E+00    0.0000000000000000E+00
             0.0000000000000000E+00    0.0000000000000000E+00    0.0000000000000000E+00
             0.0000000000000000E+00    0.0000000000000000E+00    0.0000000000000000E+00
             0.0000000000000000E+00    0.0000000000000000E+00    0.0000000000000000E+00
             0.0000000000000000E+00    0.0000000000000000E+00    0.0000000000000000E+00
             0.0000000000000000E+00    0.0000000000000000E+00    0.0000000000000000E+00
             0.0000000000000000E+00    0.0000000000000000E+00    0.0000000000000000E+00
             0.0000000000000000E+00    0.0000000000000000E+00    0.0000000000000000E+00
             0.0000000000000000E+00    0.0000000000000000E+00    0.0000000000000000E+00
             0.0000000000000000E+00    0.0000000000000000E+00    0.0000000000000000E+00
             0.0000000000000000E+00    0.0000000000000000E+00    0.0000000000000000E+00
             0.0000000000000000E+00    0.0000000000000000E+00    0.0000000000000000E+00
             0.0000000000000000E+00    0.0000000000000000E+00    0.0000000000000000E+00
             0.0000000000000000E+00    0.0000000000000000E+00    0.0000000000000000E+00
             0.0000000000000000E+00    0.0000000000000000E+00    0.0000000000000000E+00
             0.0000000000000000E+00    0.0000000000000000E+00    0.0000000000000000E+00
             0.0000000000000000E+00    0.0000000000000000E+00    0.0000000000000000E+00
             0.0000000000000000E+00    0.0000000000000000E+00    0.0000000000000000E+00
             0.0000000000000000E+00    0.0000000000000000E+00    0.0000000000000000E+00
             0.0000000000000000E+00    0.0000000000000000E+00    0.0000000000000000E+00
             0.0000000000000000E+00    0.0000000000000000E+00    0.0000000000000000E+00
             0.0000000000000000E+00    0.0000000000000000E+00    0.0000000000000000E+00
             0.0000000000000000E+00    0.0000000000000000E+00    0.0000000000000000E+00
             0.0000000000000000E+00    0.0000000000000000E+00    0.0000000000000000E+00
             0.0000000000000000E+00    0.0000000000000000E+00    0.0000000000000000E+00
             0.0000000000000000E+00    0.0000000000000000E+00    0.0000000000000000E+00
             0.0000000000000000E+00    0.0000000000000000E+00    0.0000000000000000E+00
             0.0000000000000000E+00    0.0000000000000000E+00    0.0000000000000000E+00
             0.0000000000000000E+00    0.0000000000000000E+00    0.0000000000000000E+00
             0.0000000000000000E+00    0.0000000000000000E+00    0.0000000000000000E+00
             0.0000000000000000E+00    0.0000000000000000E+00    0.0000000000000000E+00
             0.0000000000000000E+00    0.0000000000000000E+00    0.0000000000000000E+00
             0.0000000000000000E+00    0.0000000000000000E+00    0.0000000000000000E+00
             0.0000000000000000E+00    0.0000000000000000E+00    0.0000000000000000E+00
             0.0000000000000000E+00    0.0000000000000000E+00    0.0000000000000000E+00
             0.0000000000000000E+00    0.0000000000000000E+00    0.0000000000000000E+00
             0.0000000000000000E+00    0.0000000000000000E+00    0.0000000000000000E+00
             0.0000000000000000E+00    0.0000000000000000E+00    0.0000000000000000E+00
             0.0000000000000000E+00    0.0000000000000000E+00    0.0000000000000000E+00
             0.0000000000000000E+00    0.0000000000000000E+00    0.0000000000000000E+00
             0.0000000000000000E+00    0.0000000000000000E+00    0.0000000000000000E+00
             0.0000000000000000E+00    0.0000000000000000E+00    0.0000000000000000E+00
             0.0000000000000000E+00    0.0000000000000000E+00    0.0000000000000000E+00
             0.0000000000000000E+00    0.0000000000000000E+00    0.0000000000000000E+00
             0.0000000000000000E+00    0.0000000000000000E+00    0.0000000000000000E+00
             0.0000000000000000E+00    0.0000000000000000E+00    0.0000000000000000E+00
             0.0000000000000000E+00    0.0000000000000000E+00    0.0000000000000000E+00
             0.0000000000000000E+00    0.0000000000000000E+00    0.0000000000000000E+00
             0.0000000000000000E+00    0.0000000000000000E+00    0.0000000000000000E+00
             0.0000000000000000E+00    0.0000000000000000E+00    0.0000000000000000E+00
             0.0000000000000000E+00    0.0000000000000000E+00    0.0000000000000000E+00
             0.0000000000000000E+00    0.0000000000000000E+00    0.0000000000000000E+00
             0.0000000000000000E+00    0.0000000000000000E+00    0.0000000000000000E+00
             0.0000000000000000E+00    0.0000000000000000E+00    0.0000000000000000E+00
             0.0000000000000000E+00    0.0000000000000000E+00    0.0000000000000000E+00
             0.0000000000000000E+00    0.0000000000000000E+00    0.0000000000000000E+00
             0.0000000000000000E+00    0.0000000000000000E+00    0.0000000000000000E+00
             0.0000000000000000E+00    0.0000000000000000E+00    0.0000000000000000E+00
             0.0000000000000000E+00    0.0000000000000000E+00    0.0000000000000000E+00
             0.0000000000000000E+00    0.0000000000000000E+00    0.0000000000000000E+00
             0.0000000000000000E+00    0.0000000000000000E+00    0.0000000000000000E+00
             0.0000000000000000E+00    0.0000000000000000E+00    0.0000000000000000E+00
             0.0000000000000000E+00    0.0000000000000000E+00    0.0000000000000000E+00
             0.0000000000000000E+00    0.0000000000000000E+00    0.0000000000000000E+00
             0.0000000000000000E+00    0.0000000000000000E+00    0.0000000000000000E+00
             0.0000000000000000E+00    0.0000000000000000E+00    0.0000000000000000E+00
             0.0000000000000000E+00    0.0000000000000000E+00    0.0000000000000000E+00
             0.0000000000000000E+00    0.0000000000000000E+00    0.0000000000000000E+00
             0.0000000000000000E+00    0.0000000000000000E+00    0.0000000000000000E+00
             0.0000000000000000E+00    0.0000000000000000E+00    0.0000000000000000E+00
             0.0000000000000000E+00    0.0000000000000000E+00    0.0000000000000000E+00
             0.0000000000000000E+00    0.0000000000000000E+00    0.0000000000000000E+00
             0.0000000000000000E+00    0.0000000000000000E+00    0.0000000000000000E+00
             0.0000000000000000E+00    0.0000000000000000E+00    0.0000000000000000E+00
             0.0000000000000000E+00    0.0000000000000000E+00    0.0000000000000000E+00
             0.0000000000000000E+00    0.0000000000000000E+00    0.0000000000000000E+00
             0.0000000000000000E+00    0.0000000000000000E+00    0.0000000000000000E+00
             0.0000000000000000E+00    0.0000000000000000E+00    0.0000000000000000E+00
             0.0000000000000000E+00    0.0000000000000000E+00    0.0000000000000000E+00
             0.0000000000000000E+00    0.0000000000000000E+00    0.0000000000000000E+00
             0.0000000000000000E+00    0.0000000000000000E+00    0.0000000000000000E+00
             0.0000000000000000E+00    0.0000000000000000E+00    0.0000000000000000E+00
             0.0000000000000000E+00    0.0000000000000000E+00    0.0000000000000000E+00
             0.0000000000000000E+00    0.0000000000000000E+00    0.0000000000000000E+00
             0.0000000000000000E+00    0.0000000000000000E+00    0.0000000000000000E+00
             0.0000000000000000E+00    0.0000000000000000E+00    0.0000000000000000E+00
             0.0000000000000000E+00    0.0000000000000000E+00    0.0000000000000000E+00
             0.0000000000000000E+00    0.0000000000000000E+00    0.0000000000000000E+00
             0.0000000000000000E+00    0.0000000000000000E+00    0.0000000000000000E+00
             0.0000000000000000E+00    0.0000000000000000E+00    0.0000000000000000E+00
             0.0000000000000000E+00    0.0000000000000000E+00    0.0000000000000000E+00
             0.0000000000000000E+00    0.0000000000000000E+00    0.0000000000000000E+00
             0.0000000000000000E+00    0.0000000000000000E+00    0.0000000000000000E+00
             0.0000000000000000E+00    0.0000000000000000E+00    0.0000000000000000E+00
             0.0000000000000000E+00    0.0000000000000000E+00    0.0000000000000000E+00
             0.0000000000000000E+00    0.0000000000000000E+00    0.0000000000000000E+00
             0.0000000000000000E+00    0.0000000000000000E+00    0.0000000000000000E+00
             0.0000000000000000E+00    0.0000000000000000E+00    0.0000000000000000E+00
             0.0000000000000000E+00    0.0000000000000000E+00    0.0000000000000000E+00
             0.0000000000000000E+00    0.0000000000000000E+00    0.0000000000000000E+00
             0.0000000000000000E+00    0.0000000000000000E+00    0.0000000000000000E+00
             0.0000000000000000E+00    0.0000000000000000E+00    0.0000000000000000E+00
             0.0000000000000000E+00    0.0000000000000000E+00    0.0000000000000000E+00
             0.0000000000000000E+00    0.0000000000000000E+00    0.0000000000000000E+00
             0.0000000000000000E+00    0.0000000000000000E+00    0.0000000000000000E+00
             0.0000000000000000E+00    0.0000000000000000E+00    0.0000000000000000E+00
             0.0000000000000000E+00    0.0000000000000000E+00    0.0000000000000000E+00
             0.0000000000000000E+00    0.0000000000000000E+00    0.0000000000000000E+00
             0.0000000000000000E+00    0.0000000000000000E+00    0.0000000000000000E+00
             0.0000000000000000E+00    0.0000000000000000E+00    0.0000000000000000E+00
             0.0000000000000000E+00    0.0000000000000000E+00    0.0000000000000000E+00
             0.0000000000000000E+00    0.0000000000000000E+00    0.0000000000000000E+00
             0.0000000000000000E+00    0.0000000000000000E+00    0.0000000000000000E+00
             0.0000000000000000E+00    0.0000000000000000E+00    0.0000000000000000E+00
             0.0000000000000000E+00    0.0000000000000000E+00    0.0000000000000000E+00
             0.0000000000000000E+00    0.0000000000000000E+00    0.0000000000000000E+00
             0.0000000000000000E+00    0.0000000000000000E+00    0.0000000000000000E+00
             0.0000000000000000E+00    0.0000000000000000E+00    0.0000000000000000E+00
             0.0000000000000000E+00    0.0000000000000000E+00    0.0000000000000000E+00
             0.0000000000000000E+00    0.0000000000000000E+00    0.0000000000000000E+00
             0.0000000000000000E+00    0.0000000000000000E+00    0.0000000000000000E+00
             0.0000000000000000E+00    0.0000000000000000E+00    0.0000000000000000E+00
             0.0000000000000000E+00    0.0000000000000000E+00    0.0000000000000000E+00
             0.0000000000000000E+00    0.0000000000000000E+00    0.0000000000000000E+00
             0.0000000000000000E+00    0.0000000000000000E+00    0.0000000000000000E+00
             0.0000000000000000E+00    0.0000000000000000E+00    0.0000000000000000E+00
             0.0000000000000000E+00    0.0000000000000000E+00    0.0000000000000000E+00