 # Version information for this restart file 
 # current date 2024-01-13 05:06:03.687
 # current working dir /gpfs/home/cahart/transport/melamine/au_from-h2/ci-neb/ts1/dft_leads-sz_tip-dzvp_surf-dzvp_kpoints-2-4-20_replicas-5
 # Program compiled at                              Thu 21 Sep 19:20:17 BST 2023
 # Program compiled on                                           hx1-c12-login-1
 # Program compiled for                                                    local
 # Source code revision number                                       git:5518aa6
 &GLOBAL
   EXTENDED_FFT_LENGTHS  T
   PRINT_LEVEL  MEDIUM
   PROJECT_NAME 2_dft_wfn-r-0
   OUTPUT_FILE_NAME 2_dft_wfn-r-0.out
   RUN_TYPE  BAND
 &END GLOBAL
 &MOTION
   &BAND
     NPROC_REP  64
     BAND_TYPE  CI-NEB
     NUMBER_OF_REPLICA  5
     K_SPRING     5.0000000000000003E-02
     &CI_NEB
       NSTEPS_IT  5
     &END CI_NEB
     &OPTIMIZE_BAND
       OPT_TYPE  DIIS
       &DIIS
         MAX_STEPS  1000
       &END DIIS
     &END OPTIMIZE_BAND
     &REPLICA
       &COORD
             0.0000000000000000E+00    0.0000000000000000E+00    0.0000000000000000E+00
             0.0000000000000000E+00    2.9550000000000405E+00    0.0000000000000000E+00
             0.0000000000000000E+00    5.9110000000000795E+00    0.0000000000000000E+00
             2.9560000000000439E+00    0.0000000000000000E+00    0.0000000000000000E+00
             2.9560000000000439E+00    2.9550000000000405E+00    0.0000000000000000E+00
             2.9560000000000439E+00    5.9110000000000795E+00    0.0000000000000000E+00
             5.9120000000000879E+00    0.0000000000000000E+00    0.0000000000000000E+00
             5.9120000000000879E+00    2.9550000000000405E+00    0.0000000000000000E+00
             5.9120000000000879E+00    5.9110000000000795E+00    0.0000000000000000E+00
             8.6700000000001367E+00    0.0000000000000000E+00    0.0000000000000000E+00
             8.6700000000001367E+00    2.9550000000000405E+00    0.0000000000000000E+00
             8.6700000000001367E+00    5.9110000000000795E+00    0.0000000000000000E+00
             1.1626000000000168E+01    0.0000000000000000E+00    0.0000000000000000E+00
             1.1626000000000168E+01    2.9550000000000405E+00    0.0000000000000000E+00
             1.1626000000000168E+01    5.9110000000000795E+00    0.0000000000000000E+00
             1.4780000000000220E+00    1.4780000000000220E+00    2.0900000000000292E+00
             1.4780000000000220E+00    4.4330000000000647E+00    2.0900000000000292E+00
             1.4780000000000220E+00    7.3890000000001068E+00    2.0900000000000292E+00
             4.4340000000000650E+00    1.4780000000000220E+00    2.0900000000000292E+00
             4.4340000000000650E+00    4.4330000000000647E+00    2.0900000000000292E+00
             4.4340000000000650E+00    7.3890000000001068E+00    2.0900000000000292E+00
             7.1920000000001032E+00    1.4780000000000220E+00    2.0900000000000292E+00
             7.1920000000001032E+00    4.4330000000000647E+00    2.0900000000000292E+00
             7.1920000000001032E+00    7.3890000000001068E+00    2.0900000000000292E+00
             1.0148000000000147E+01    1.4780000000000220E+00    2.0900000000000292E+00
             1.0148000000000147E+01    4.4330000000000647E+00    2.0900000000000292E+00
             1.0148000000000147E+01    7.3890000000001068E+00    2.0900000000000292E+00
             1.3104000000000184E+01    1.4780000000000220E+00    2.0900000000000292E+00
             1.3104000000000184E+01    4.4330000000000647E+00    2.0900000000000292E+00
             1.3104000000000184E+01    7.3890000000001068E+00    2.0900000000000292E+00
             0.0000000000000000E+00    0.0000000000000000E+00    4.1800000000000583E+00
             0.0000000000000000E+00    2.9550000000000405E+00    4.1800000000000583E+00
             0.0000000000000000E+00    5.9110000000000795E+00    4.1800000000000583E+00
             2.9560000000000439E+00    0.0000000000000000E+00    4.1800000000000583E+00
             2.9560000000000439E+00    2.9550000000000405E+00    4.1800000000000583E+00
             2.9560000000000439E+00    5.9110000000000795E+00    4.1800000000000583E+00
             5.9120000000000879E+00    0.0000000000000000E+00    4.1800000000000583E+00
             5.9120000000000879E+00    2.9550000000000405E+00    4.1800000000000583E+00
             5.9120000000000879E+00    5.9110000000000795E+00    4.1800000000000583E+00
             8.6700000000001367E+00    0.0000000000000000E+00    4.1800000000000583E+00
             8.6700000000001367E+00    2.9550000000000405E+00    4.1800000000000583E+00
             8.6700000000001367E+00    5.9110000000000795E+00    4.1800000000000583E+00
             1.1626000000000168E+01    0.0000000000000000E+00    4.1800000000000583E+00
             1.1626000000000168E+01    2.9550000000000405E+00    4.1800000000000583E+00
             1.1626000000000168E+01    5.9110000000000795E+00    4.1800000000000583E+00
             1.4780000000000220E+00    1.4780000000000220E+00    6.2700000000000875E+00
             1.4780000000000220E+00    4.4330000000000647E+00    6.2700000000000875E+00
             1.4780000000000220E+00    7.3890000000001068E+00    6.2700000000000875E+00
             4.4340000000000650E+00    1.4780000000000220E+00    6.2700000000000875E+00
             4.4340000000000650E+00    4.4330000000000647E+00    6.2700000000000875E+00
             4.4340000000000650E+00    7.3890000000001068E+00    6.2700000000000875E+00
             7.1920000000001032E+00    1.4780000000000220E+00    6.2700000000000875E+00
             7.1920000000001032E+00    4.4330000000000647E+00    6.2700000000000875E+00
             7.1920000000001032E+00    7.3890000000001068E+00    6.2700000000000875E+00
             1.0148000000000147E+01    1.4780000000000220E+00    6.2700000000000875E+00
             1.0148000000000147E+01    4.4330000000000647E+00    6.2700000000000875E+00
             1.0148000000000147E+01    7.3890000000001068E+00    6.2700000000000875E+00
             1.3104000000000184E+01    1.4780000000000220E+00    6.2700000000000875E+00
             1.3104000000000184E+01    4.4330000000000647E+00    6.2700000000000875E+00
             1.3104000000000184E+01    7.3890000000001068E+00    6.2700000000000875E+00
             0.0000000000000000E+00    0.0000000000000000E+00    8.3600000000001167E+00
             0.0000000000000000E+00    2.9550000000000405E+00    8.3600000000001167E+00
             0.0000000000000000E+00    5.9110000000000795E+00    8.3600000000001167E+00
             2.9560000000000439E+00    0.0000000000000000E+00    8.3600000000001167E+00
             2.9560000000000439E+00    2.9550000000000405E+00    8.3600000000001167E+00
             2.9560000000000439E+00    5.9110000000000795E+00    8.3600000000001167E+00
             5.9120000000000879E+00    0.0000000000000000E+00    8.3600000000001167E+00
             5.9120000000000879E+00    2.9550000000000405E+00    8.3600000000001167E+00
             5.9120000000000879E+00    5.9110000000000795E+00    8.3600000000001167E+00
             8.6700000000001367E+00    0.0000000000000000E+00    8.3600000000001167E+00
             8.6700000000001367E+00    2.9550000000000405E+00    8.3600000000001167E+00
             8.6700000000001367E+00    5.9110000000000795E+00    8.3600000000001167E+00
             1.1626000000000168E+01    0.0000000000000000E+00    8.3600000000001167E+00
             1.1626000000000168E+01    2.9550000000000405E+00    8.3600000000001167E+00
             1.1626000000000168E+01    5.9110000000000795E+00    8.3600000000001167E+00
             1.4780000000000220E+00    1.4780000000000220E+00    1.0450000000000154E+01
             1.4780000000000220E+00    4.4330000000000647E+00    1.0450000000000154E+01
             1.4780000000000220E+00    7.3890000000001068E+00    1.0450000000000154E+01
             4.4340000000000650E+00    1.4780000000000220E+00    1.0450000000000154E+01
             4.4340000000000650E+00    4.4330000000000647E+00    1.0450000000000154E+01
             4.4340000000000650E+00    7.3890000000001068E+00    1.0450000000000154E+01
             7.1920000000001032E+00    1.4780000000000220E+00    1.0450000000000154E+01
             7.1920000000001032E+00    4.4330000000000647E+00    1.0450000000000154E+01
             7.1920000000001032E+00    7.3890000000001068E+00    1.0450000000000154E+01
             1.0148000000000147E+01    1.4780000000000220E+00    1.0450000000000154E+01
             1.0148000000000147E+01    4.4330000000000647E+00    1.0450000000000154E+01
             1.0148000000000147E+01    7.3890000000001068E+00    1.0450000000000154E+01
             1.3104000000000184E+01    1.4780000000000220E+00    1.0450000000000154E+01
             1.3104000000000184E+01    4.4330000000000647E+00    1.0450000000000154E+01
             1.3104000000000184E+01    7.3890000000001068E+00    1.0450000000000154E+01
             4.8554000000000785E+00    5.9119000000000836E+00    1.2031800000000171E+01
             9.5280000000001390E+00    5.9137000000000830E+00    1.2034000000000185E+01
             7.1920000000001032E+00    5.9340000000000925E+00    1.2040000000000180E+01
             4.0750319168000573E+00    5.9049488170000881E+00    1.2696844061800176E+01
             1.0293988349500147E+01    5.9062142779000801E+00    1.2716532694500206E+01
             6.0099999686000931E+00    5.9120523853000879E+00    1.2765819797400185E+01
             8.3750478948001188E+00    5.9129627335000805E+00    1.2760746495900177E+01
             8.4047327065001198E+00    5.8893877816000826E+00    1.4094060897200187E+01
             5.9788500869000893E+00    5.8882515165000839E+00    1.4094239568500216E+01
             7.1943473363001020E+00    5.8799164377000821E+00    1.4701118490300207E+01
             7.1912293097001010E+00    5.8521058221000883E+00    1.6050622658200240E+01
             6.3086348447000997E+00    5.8615539361000897E+00    1.6548439365000242E+01
             8.0709262665001198E+00    5.8621389354000781E+00    1.6553588809700244E+01
             7.3120000000001051E+00    5.9340000000000925E+00    2.1043000000000283E+01
             5.8130000000000841E+00    7.4340000000001130E+00    2.2992000000000353E+01
             8.8130000000001250E+00    4.4340000000000650E+00    2.2992000000000353E+01
             5.8130000000000841E+00    4.4330000000000647E+00    2.2992000000000353E+01
             8.8130000000001250E+00    7.4340000000001130E+00    2.2992000000000353E+01
             1.4780000000000220E+00    1.4780000000000220E+00    2.5082000000000324E+01
             1.4780000000000220E+00    4.4330000000000647E+00    2.5082000000000324E+01
             1.4780000000000220E+00    7.3890000000001068E+00    2.5082000000000324E+01
             4.4340000000000650E+00    1.4780000000000220E+00    2.5082000000000324E+01
             4.4340000000000650E+00    4.4330000000000647E+00    2.5082000000000324E+01
             4.4340000000000650E+00    7.3890000000001068E+00    2.5082000000000324E+01
             7.1920000000001032E+00    1.4780000000000220E+00    2.5082000000000324E+01
             7.1920000000001032E+00    4.4330000000000647E+00    2.5082000000000324E+01
             7.1920000000001032E+00    7.3890000000001068E+00    2.5082000000000324E+01
             1.0148000000000147E+01    1.4780000000000220E+00    2.5082000000000324E+01
             1.0148000000000147E+01    4.4330000000000647E+00    2.5082000000000324E+01
             1.0148000000000147E+01    7.3890000000001068E+00    2.5082000000000324E+01
             1.3104000000000184E+01    1.4780000000000220E+00    2.5082000000000324E+01
             1.3104000000000184E+01    4.4330000000000647E+00    2.5082000000000324E+01
             1.3104000000000184E+01    7.3890000000001068E+00    2.5082000000000324E+01
             0.0000000000000000E+00    0.0000000000000000E+00    2.7172000000000399E+01
             0.0000000000000000E+00    2.9550000000000405E+00    2.7172000000000399E+01
             0.0000000000000000E+00    5.9110000000000795E+00    2.7172000000000399E+01
             2.9560000000000439E+00    0.0000000000000000E+00    2.7172000000000399E+01
             2.9560000000000439E+00    2.9550000000000405E+00    2.7172000000000399E+01
             2.9560000000000439E+00    5.9110000000000795E+00    2.7172000000000399E+01
             5.9120000000000879E+00    0.0000000000000000E+00    2.7172000000000399E+01
             5.9120000000000879E+00    2.9550000000000405E+00    2.7172000000000399E+01
             5.9120000000000879E+00    5.9110000000000795E+00    2.7172000000000399E+01
             8.6700000000001367E+00    0.0000000000000000E+00    2.7172000000000399E+01
             8.6700000000001367E+00    2.9550000000000405E+00    2.7172000000000399E+01
             8.6700000000001367E+00    5.9110000000000795E+00    2.7172000000000399E+01
             1.1626000000000168E+01    0.0000000000000000E+00    2.7172000000000399E+01
             1.1626000000000168E+01    2.9550000000000405E+00    2.7172000000000399E+01
             1.1626000000000168E+01    5.9110000000000795E+00    2.7172000000000399E+01
             1.4780000000000220E+00    1.4780000000000220E+00    2.9262000000000405E+01
             1.4780000000000220E+00    4.4330000000000647E+00    2.9262000000000405E+01
             1.4780000000000220E+00    7.3890000000001068E+00    2.9262000000000405E+01
             4.4340000000000650E+00    1.4780000000000220E+00    2.9262000000000405E+01
             4.4340000000000650E+00    4.4330000000000647E+00    2.9262000000000405E+01
             4.4340000000000650E+00    7.3890000000001068E+00    2.9262000000000405E+01
             7.1920000000001032E+00    1.4780000000000220E+00    2.9262000000000405E+01
             7.1920000000001032E+00    4.4330000000000647E+00    2.9262000000000405E+01
             7.1920000000001032E+00    7.3890000000001068E+00    2.9262000000000405E+01
             1.0148000000000147E+01    1.4780000000000220E+00    2.9262000000000405E+01
             1.0148000000000147E+01    4.4330000000000647E+00    2.9262000000000405E+01
             1.0148000000000147E+01    7.3890000000001068E+00    2.9262000000000405E+01
             1.3104000000000184E+01    1.4780000000000220E+00    2.9262000000000405E+01
             1.3104000000000184E+01    4.4330000000000647E+00    2.9262000000000405E+01
             1.3104000000000184E+01    7.3890000000001068E+00    2.9262000000000405E+01
             0.0000000000000000E+00    0.0000000000000000E+00    3.1352000000000452E+01
             0.0000000000000000E+00    2.9550000000000405E+00    3.1352000000000452E+01
             0.0000000000000000E+00    5.9110000000000795E+00    3.1352000000000452E+01
             2.9560000000000439E+00    0.0000000000000000E+00    3.1352000000000452E+01
             2.9560000000000439E+00    2.9550000000000405E+00    3.1352000000000452E+01
             2.9560000000000439E+00    5.9110000000000795E+00    3.1352000000000452E+01
             5.9120000000000879E+00    0.0000000000000000E+00    3.1352000000000452E+01
             5.9120000000000879E+00    2.9550000000000405E+00    3.1352000000000452E+01
             5.9120000000000879E+00    5.9110000000000795E+00    3.1352000000000452E+01
             8.6700000000001367E+00    0.0000000000000000E+00    3.1352000000000452E+01
             8.6700000000001367E+00    2.9550000000000405E+00    3.1352000000000452E+01
             8.6700000000001367E+00    5.9110000000000795E+00    3.1352000000000452E+01
             1.1626000000000168E+01    0.0000000000000000E+00    3.1352000000000452E+01
             1.1626000000000168E+01    2.9550000000000405E+00    3.1352000000000452E+01
             1.1626000000000168E+01    5.9110000000000795E+00    3.1352000000000452E+01
             1.4780000000000220E+00    1.4780000000000220E+00    3.3442000000000476E+01
             1.4780000000000220E+00    4.4330000000000647E+00    3.3442000000000476E+01
             1.4780000000000220E+00    7.3890000000001068E+00    3.3442000000000476E+01
             4.4340000000000650E+00    1.4780000000000220E+00    3.3442000000000476E+01
             4.4340000000000650E+00    4.4330000000000647E+00    3.3442000000000476E+01
             4.4340000000000650E+00    7.3890000000001068E+00    3.3442000000000476E+01
             7.1920000000001032E+00    1.4780000000000220E+00    3.3442000000000476E+01
             7.1920000000001032E+00    4.4330000000000647E+00    3.3442000000000476E+01
             7.1920000000001032E+00    7.3890000000001068E+00    3.3442000000000476E+01
             1.0148000000000147E+01    1.4780000000000220E+00    3.3442000000000476E+01
             1.0148000000000147E+01    4.4330000000000647E+00    3.3442000000000476E+01
             1.0148000000000147E+01    7.3890000000001068E+00    3.3442000000000476E+01
             1.3104000000000184E+01    1.4780000000000220E+00    3.3442000000000476E+01
             1.3104000000000184E+01    4.4330000000000647E+00    3.3442000000000476E+01
             1.3104000000000184E+01    7.3890000000001068E+00    3.3442000000000476E+01
       &END COORD
       &VELOCITY
             0.0000000000000000E+00    0.0000000000000000E+00    0.0000000000000000E+00
             0.0000000000000000E+00    0.0000000000000000E+00    0.0000000000000000E+00
             0.0000000000000000E+00    0.0000000000000000E+00    0.0000000000000000E+00
             0.0000000000000000E+00    0.0000000000000000E+00    0.0000000000000000E+00
             0.0000000000000000E+00    0.0000000000000000E+00    0.0000000000000000E+00
             0.0000000000000000E+00    0.0000000000000000E+00    0.0000000000000000E+00
             0.0000000000000000E+00    0.0000000000000000E+00    0.0000000000000000E+00
             0.0000000000000000E+00    0.0000000000000000E+00    0.0000000000000000E+00
             0.0000000000000000E+00    0.0000000000000000E+00    0.0000000000000000E+00
             0.0000000000000000E+00    0.0000000000000000E+00    0.0000000000000000E+00
             0.0000000000000000E+00    0.0000000000000000E+00    0.0000000000000000E+00
             0.0000000000000000E+00    0.0000000000000000E+00    0.0000000000000000E+00
             0.0000000000000000E+00    0.0000000000000000E+00    0.0000000000000000E+00
             0.0000000000000000E+00    0.0000000000000000E+00    0.0000000000000000E+00
             0.0000000000000000E+00    0.0000000000000000E+00    0.0000000000000000E+00
             0.0000000000000000E+00    0.0000000000000000E+00    0.0000000000000000E+00
             0.0000000000000000E+00    0.0000000000000000E+00    0.0000000000000000E+00
             0.0000000000000000E+00    0.0000000000000000E+00    0.0000000000000000E+00
             0.0000000000000000E+00    0.0000000000000000E+00    0.0000000000000000E+00
             0.0000000000000000E+00    0.0000000000000000E+00    0.0000000000000000E+00
             0.0000000000000000E+00    0.0000000000000000E+00    0.0000000000000000E+00
             0.0000000000000000E+00    0.0000000000000000E+00    0.0000000000000000E+00
             0.0000000000000000E+00    0.0000000000000000E+00    0.0000000000000000E+00
             0.0000000000000000E+00    0.0000000000000000E+00    0.0000000000000000E+00
             0.0000000000000000E+00    0.0000000000000000E+00    0.0000000000000000E+00
             0.0000000000000000E+00    0.0000000000000000E+00    0.0000000000000000E+00
             0.0000000000000000E+00    0.0000000000000000E+00    0.0000000000000000E+00
             0.0000000000000000E+00    0.0000000000000000E+00    0.0000000000000000E+00
             0.0000000000000000E+00    0.0000000000000000E+00    0.0000000000000000E+00
             0.0000000000000000E+00    0.0000000000000000E+00    0.0000000000000000E+00
             0.0000000000000000E+00    0.0000000000000000E+00    0.0000000000000000E+00
             0.0000000000000000E+00    0.0000000000000000E+00    0.0000000000000000E+00
             0.0000000000000000E+00    0.0000000000000000E+00    0.0000000000000000E+00
             0.0000000000000000E+00    0.0000000000000000E+00    0.0000000000000000E+00
             0.0000000000000000E+00    0.0000000000000000E+00    0.0000000000000000E+00
             0.0000000000000000E+00    0.0000000000000000E+00    0.0000000000000000E+00
             0.0000000000000000E+00    0.0000000000000000E+00    0.0000000000000000E+00
             0.0000000000000000E+00    0.0000000000000000E+00    0.0000000000000000E+00
             0.0000000000000000E+00    0.0000000000000000E+00    0.0000000000000000E+00
             0.0000000000000000E+00    0.0000000000000000E+00    0.0000000000000000E+00
             0.0000000000000000E+00    0.0000000000000000E+00    0.0000000000000000E+00
             0.0000000000000000E+00    0.0000000000000000E+00    0.0000000000000000E+00
             0.0000000000000000E+00    0.0000000000000000E+00    0.0000000000000000E+00
             0.0000000000000000E+00    0.0000000000000000E+00    0.0000000000000000E+00
             0.0000000000000000E+00    0.0000000000000000E+00    0.0000000000000000E+00
             0.0000000000000000E+00    0.0000000000000000E+00    0.0000000000000000E+00
             0.0000000000000000E+00    0.0000000000000000E+00    0.0000000000000000E+00
             0.0000000000000000E+00    0.0000000000000000E+00    0.0000000000000000E+00
             0.0000000000000000E+00    0.0000000000000000E+00    0.0000000000000000E+00
             0.0000000000000000E+00    0.0000000000000000E+00    0.0000000000000000E+00
             0.0000000000000000E+00    0.0000000000000000E+00    0.0000000000000000E+00
             0.0000000000000000E+00    0.0000000000000000E+00    0.0000000000000000E+00
             0.0000000000000000E+00    0.0000000000000000E+00    0.0000000000000000E+00
             0.0000000000000000E+00    0.0000000000000000E+00    0.0000000000000000E+00
             0.0000000000000000E+00    0.0000000000000000E+00    0.0000000000000000E+00
             0.0000000000000000E+00    0.0000000000000000E+00    0.0000000000000000E+00
             0.0000000000000000E+00    0.0000000000000000E+00    0.0000000000000000E+00
             0.0000000000000000E+00    0.0000000000000000E+00    0.0000000000000000E+00
             0.0000000000000000E+00    0.0000000000000000E+00    0.0000000000000000E+00
             0.0000000000000000E+00    0.0000000000000000E+00    0.0000000000000000E+00
             0.0000000000000000E+00    0.0000000000000000E+00    0.0000000000000000E+00
             0.0000000000000000E+00    0.0000000000000000E+00    0.0000000000000000E+00
             0.0000000000000000E+00    0.0000000000000000E+00    0.0000000000000000E+00
             0.0000000000000000E+00    0.0000000000000000E+00    0.0000000000000000E+00
             0.0000000000000000E+00    0.0000000000000000E+00    0.0000000000000000E+00
             0.0000000000000000E+00    0.0000000000000000E+00    0.0000000000000000E+00
             0.0000000000000000E+00    0.0000000000000000E+00    0.0000000000000000E+00
             0.0000000000000000E+00    0.0000000000000000E+00    0.0000000000000000E+00
             0.0000000000000000E+00    0.0000000000000000E+00    0.0000000000000000E+00
             0.0000000000000000E+00    0.0000000000000000E+00    0.0000000000000000E+00
             0.0000000000000000E+00    0.0000000000000000E+00    0.0000000000000000E+00
             0.0000000000000000E+00    0.0000000000000000E+00    0.0000000000000000E+00
             0.0000000000000000E+00    0.0000000000000000E+00    0.0000000000000000E+00
             0.0000000000000000E+00    0.0000000000000000E+00    0.0000000000000000E+00
             0.0000000000000000E+00    0.0000000000000000E+00    0.0000000000000000E+00
             0.0000000000000000E+00    0.0000000000000000E+00    0.0000000000000000E+00
             0.0000000000000000E+00    0.0000000000000000E+00    0.0000000000000000E+00
             0.0000000000000000E+00    0.0000000000000000E+00    0.0000000000000000E+00
             0.0000000000000000E+00    0.0000000000000000E+00    0.0000000000000000E+00
             0.0000000000000000E+00    0.0000000000000000E+00    0.0000000000000000E+00
             0.0000000000000000E+00    0.0000000000000000E+00    0.0000000000000000E+00
             0.0000000000000000E+00    0.0000000000000000E+00    0.0000000000000000E+00
             0.0000000000000000E+00    0.0000000000000000E+00    0.0000000000000000E+00
             0.0000000000000000E+00    0.0000000000000000E+00    0.0000000000000000E+00
             0.0000000000000000E+00    0.0000000000000000E+00    0.0000000000000000E+00
             0.0000000000000000E+00    0.0000000000000000E+00    0.0000000000000000E+00
             0.0000000000000000E+00    0.0000000000000000E+00    0.0000000000000000E+00
             0.0000000000000000E+00    0.0000000000000000E+00    0.0000000000000000E+00
             0.0000000000000000E+00    0.0000000000000000E+00    0.0000000000000000E+00
             0.0000000000000000E+00    0.0000000000000000E+00    0.0000000000000000E+00
             0.0000000000000000E+00    0.0000000000000000E+00    0.0000000000000000E+00
             0.0000000000000000E+00    0.0000000000000000E+00    0.0000000000000000E+00
             0.0000000000000000E+00    0.0000000000000000E+00    0.0000000000000000E+00
             0.0000000000000000E+00    0.0000000000000000E+00    0.0000000000000000E+00
             0.0000000000000000E+00    0.0000000000000000E+00    0.0000000000000000E+00
             0.0000000000000000E+00    0.0000000000000000E+00    0.0000000000000000E+00
             0.0000000000000000E+00    0.0000000000000000E+00    0.0000000000000000E+00
             0.0000000000000000E+00    0.0000000000000000E+00    0.0000000000000000E+00
             0.0000000000000000E+00    0.0000000000000000E+00    0.0000000000000000E+00
             0.0000000000000000E+00    0.0000000000000000E+00    0.0000000000000000E+00
             0.0000000000000000E+00    0.0000000000000000E+00    0.0000000000000000E+00
             0.0000000000000000E+00    0.0000000000000000E+00    0.0000000000000000E+00
             0.0000000000000000E+00    0.0000000000000000E+00    0.0000000000000000E+00
             0.0000000000000000E+00    0.0000000000000000E+00    0.0000000000000000E+00
             0.0000000000000000E+00    0.0000000000000000E+00    0.0000000000000000E+00
             0.0000000000000000E+00    0.0000000000000000E+00    0.0000000000000000E+00
             0.0000000000000000E+00    0.0000000000000000E+00    0.0000000000000000E+00
             0.0000000000000000E+00    0.0000000000000000E+00    0.0000000000000000E+00
             0.0000000000000000E+00    0.0000000000000000E+00    0.0000000000000000E+00
             0.0000000000000000E+00    0.0000000000000000E+00    0.0000000000000000E+00
             0.0000000000000000E+00    0.0000000000000000E+00    0.0000000000000000E+00
             0.0000000000000000E+00    0.0000000000000000E+00    0.0000000000000000E+00
             0.0000000000000000E+00    0.0000000000000000E+00    0.0000000000000000E+00
             0.0000000000000000E+00    0.0000000000000000E+00    0.0000000000000000E+00
             0.0000000000000000E+00    0.0000000000000000E+00    0.0000000000000000E+00
             0.0000000000000000E+00    0.0000000000000000E+00    0.0000000000000000E+00
             0.0000000000000000E+00    0.0000000000000000E+00    0.0000000000000000E+00
             0.0000000000000000E+00    0.0000000000000000E+00    0.0000000000000000E+00
             0.0000000000000000E+00    0.0000000000000000E+00    0.0000000000000000E+00
             0.0000000000000000E+00    0.0000000000000000E+00    0.0000000000000000E+00
             0.0000000000000000E+00    0.0000000000000000E+00    0.0000000000000000E+00
             0.0000000000000000E+00    0.0000000000000000E+00    0.0000000000000000E+00
             0.0000000000000000E+00    0.0000000000000000E+00    0.0000000000000000E+00
             0.0000000000000000E+00    0.0000000000000000E+00    0.0000000000000000E+00
             0.0000000000000000E+00    0.0000000000000000E+00    0.0000000000000000E+00
             0.0000000000000000E+00    0.0000000000000000E+00    0.0000000000000000E+00
             0.0000000000000000E+00    0.0000000000000000E+00    0.0000000000000000E+00
             0.0000000000000000E+00    0.0000000000000000E+00    0.0000000000000000E+00
             0.0000000000000000E+00    0.0000000000000000E+00    0.0000000000000000E+00
             0.0000000000000000E+00    0.0000000000000000E+00    0.0000000000000000E+00
             0.0000000000000000E+00    0.0000000000000000E+00    0.0000000000000000E+00
             0.0000000000000000E+00    0.0000000000000000E+00    0.0000000000000000E+00
             0.0000000000000000E+00    0.0000000000000000E+00    0.0000000000000000E+00
             0.0000000000000000E+00    0.0000000000000000E+00    0.0000000000000000E+00
             0.0000000000000000E+00    0.0000000000000000E+00    0.0000000000000000E+00
             0.0000000000000000E+00    0.0000000000000000E+00    0.0000000000000000E+00
             0.0000000000000000E+00    0.0000000000000000E+00    0.0000000000000000E+00
             0.0000000000000000E+00    0.0000000000000000E+00    0.0000000000000000E+00
             0.0000000000000000E+00    0.0000000000000000E+00    0.0000000000000000E+00
             0.0000000000000000E+00    0.0000000000000000E+00    0.0000000000000000E+00
             0.0000000000000000E+00    0.0000000000000000E+00    0.0000000000000000E+00
             0.0000000000000000E+00    0.0000000000000000E+00    0.0000000000000000E+00
             0.0000000000000000E+00    0.0000000000000000E+00    0.0000000000000000E+00
             0.0000000000000000E+00    0.0000000000000000E+00    0.0000000000000000E+00
             0.0000000000000000E+00    0.0000000000000000E+00    0.0000000000000000E+00