 # Version information for this restart file 
 # current date 2024-01-13 10:15:03.989
 # current working dir /gpfs/home/cahart/transport/melamine/au_from-h2/ci-neb/ts1/dft_leads-sz_tip-dzvp_surf-dzvp_kpoints-2-4-20_replicas-5
 # Program compiled at                              Thu 21 Sep 19:20:17 BST 2023
 # Program compiled on                                           hx1-c12-login-1
 # Program compiled for                                                    local
 # Source code revision number                                       git:5518aa6
 &GLOBAL
   EXTENDED_FFT_LENGTHS  T
   PRINT_LEVEL  MEDIUM
   PROJECT_NAME 2_dft_wfn-r-0
   OUTPUT_FILE_NAME 2_dft_wfn-r-0.out
   RUN_TYPE  BAND
 &END GLOBAL
 &MOTION
   &BAND
     NPROC_REP  64
     BAND_TYPE  CI-NEB
     NUMBER_OF_REPLICA  5
     K_SPRING     5.0000000000000003E-02
     &CI_NEB
       NSTEPS_IT  5
     &END CI_NEB
     &OPTIMIZE_BAND
       OPT_TYPE  DIIS
       &DIIS
         MAX_STEPS  1000
       &END DIIS
     &END OPTIMIZE_BAND
     &REPLICA
       &COORD
             0.0000000000000000E+00    0.0000000000000000E+00    0.0000000000000000E+00
             0.0000000000000000E+00    2.9550000000000378E+00    0.0000000000000000E+00
             0.0000000000000000E+00    5.9110000000000769E+00    0.0000000000000000E+00
             2.9560000000000426E+00    0.0000000000000000E+00    0.0000000000000000E+00
             2.9560000000000426E+00    2.9550000000000378E+00    0.0000000000000000E+00
             2.9560000000000426E+00    5.9110000000000769E+00    0.0000000000000000E+00
             5.9120000000000852E+00    0.0000000000000000E+00    0.0000000000000000E+00
             5.9120000000000852E+00    2.9550000000000378E+00    0.0000000000000000E+00
             5.9120000000000852E+00    5.9110000000000769E+00    0.0000000000000000E+00
             8.6700000000001296E+00    0.0000000000000000E+00    0.0000000000000000E+00
             8.6700000000001296E+00    2.9550000000000378E+00    0.0000000000000000E+00
             8.6700000000001296E+00    5.9110000000000769E+00    0.0000000000000000E+00
             1.1626000000000165E+01    0.0000000000000000E+00    0.0000000000000000E+00
             1.1626000000000165E+01    2.9550000000000378E+00    0.0000000000000000E+00
             1.1626000000000165E+01    5.9110000000000769E+00    0.0000000000000000E+00
             1.4780000000000213E+00    1.4780000000000213E+00    2.0900000000000287E+00
             1.4780000000000213E+00    4.4330000000000602E+00    2.0900000000000287E+00
             1.4780000000000213E+00    7.3890000000001042E+00    2.0900000000000287E+00
             4.4340000000000606E+00    1.4780000000000213E+00    2.0900000000000287E+00
             4.4340000000000606E+00    4.4330000000000602E+00    2.0900000000000287E+00
             4.4340000000000606E+00    7.3890000000001042E+00    2.0900000000000287E+00
             7.1920000000000961E+00    1.4780000000000213E+00    2.0900000000000287E+00
             7.1920000000000961E+00    4.4330000000000602E+00    2.0900000000000287E+00
             7.1920000000000961E+00    7.3890000000001042E+00    2.0900000000000287E+00
             1.0148000000000140E+01    1.4780000000000213E+00    2.0900000000000287E+00
             1.0148000000000140E+01    4.4330000000000602E+00    2.0900000000000287E+00
             1.0148000000000140E+01    7.3890000000001042E+00    2.0900000000000287E+00
             1.3104000000000177E+01    1.4780000000000213E+00    2.0900000000000287E+00
             1.3104000000000177E+01    4.4330000000000602E+00    2.0900000000000287E+00
             1.3104000000000177E+01    7.3890000000001042E+00    2.0900000000000287E+00
             0.0000000000000000E+00    0.0000000000000000E+00    4.1800000000000574E+00
             0.0000000000000000E+00    2.9550000000000378E+00    4.1800000000000574E+00
             0.0000000000000000E+00    5.9110000000000769E+00    4.1800000000000574E+00
             2.9560000000000426E+00    0.0000000000000000E+00    4.1800000000000574E+00
             2.9560000000000426E+00    2.9550000000000378E+00    4.1800000000000574E+00
             2.9560000000000426E+00    5.9110000000000769E+00    4.1800000000000574E+00
             5.9120000000000852E+00    0.0000000000000000E+00    4.1800000000000574E+00
             5.9120000000000852E+00    2.9550000000000378E+00    4.1800000000000574E+00
             5.9120000000000852E+00    5.9110000000000769E+00    4.1800000000000574E+00
             8.6700000000001296E+00    0.0000000000000000E+00    4.1800000000000574E+00
             8.6700000000001296E+00    2.9550000000000378E+00    4.1800000000000574E+00
             8.6700000000001296E+00    5.9110000000000769E+00    4.1800000000000574E+00
             1.1626000000000165E+01    0.0000000000000000E+00    4.1800000000000574E+00
             1.1626000000000165E+01    2.9550000000000378E+00    4.1800000000000574E+00
             1.1626000000000165E+01    5.9110000000000769E+00    4.1800000000000574E+00
             1.4780000000000213E+00    1.4780000000000213E+00    6.2700000000000902E+00
             1.4780000000000213E+00    4.4330000000000602E+00    6.2700000000000902E+00
             1.4780000000000213E+00    7.3890000000001042E+00    6.2700000000000902E+00
             4.4340000000000606E+00    1.4780000000000213E+00    6.2700000000000902E+00
             4.4340000000000606E+00    4.4330000000000602E+00    6.2700000000000902E+00
             4.4340000000000606E+00    7.3890000000001042E+00    6.2700000000000902E+00
             7.1920000000000961E+00    1.4780000000000213E+00    6.2700000000000902E+00
             7.1920000000000961E+00    4.4330000000000602E+00    6.2700000000000902E+00
             7.1920000000000961E+00    7.3890000000001042E+00    6.2700000000000902E+00
             1.0148000000000140E+01    1.4780000000000213E+00    6.2700000000000902E+00
             1.0148000000000140E+01    4.4330000000000602E+00    6.2700000000000902E+00
             1.0148000000000140E+01    7.3890000000001042E+00    6.2700000000000902E+00
             1.3104000000000177E+01    1.4780000000000213E+00    6.2700000000000902E+00
             1.3104000000000177E+01    4.4330000000000602E+00    6.2700000000000902E+00
             1.3104000000000177E+01    7.3890000000001042E+00    6.2700000000000902E+00
             0.0000000000000000E+00    0.0000000000000000E+00    8.3600000000001149E+00
             0.0000000000000000E+00    2.9550000000000378E+00    8.3600000000001149E+00
             0.0000000000000000E+00    5.9110000000000769E+00    8.3600000000001149E+00
             2.9560000000000426E+00    0.0000000000000000E+00    8.3600000000001149E+00
             2.9560000000000426E+00    2.9550000000000378E+00    8.3600000000001149E+00
             2.9560000000000426E+00    5.9110000000000769E+00    8.3600000000001149E+00
             5.9120000000000852E+00    0.0000000000000000E+00    8.3600000000001149E+00
             5.9120000000000852E+00    2.9550000000000378E+00    8.3600000000001149E+00
             5.9120000000000852E+00    5.9110000000000769E+00    8.3600000000001149E+00
             8.6700000000001296E+00    0.0000000000000000E+00    8.3600000000001149E+00
             8.6700000000001296E+00    2.9550000000000378E+00    8.3600000000001149E+00
             8.6700000000001296E+00    5.9110000000000769E+00    8.3600000000001149E+00
             1.1626000000000165E+01    0.0000000000000000E+00    8.3600000000001149E+00
             1.1626000000000165E+01    2.9550000000000378E+00    8.3600000000001149E+00
             1.1626000000000165E+01    5.9110000000000769E+00    8.3600000000001149E+00
             1.4780000000000213E+00    1.4780000000000213E+00    1.0450000000000145E+01
             1.4780000000000213E+00    4.4330000000000602E+00    1.0450000000000145E+01
             1.4780000000000213E+00    7.3890000000001042E+00    1.0450000000000145E+01
             4.4340000000000606E+00    1.4780000000000213E+00    1.0450000000000145E+01
             4.4340000000000606E+00    4.4330000000000602E+00    1.0450000000000145E+01
             4.4340000000000606E+00    7.3890000000001042E+00    1.0450000000000145E+01
             7.1920000000000961E+00    1.4780000000000213E+00    1.0450000000000145E+01
             7.1920000000000961E+00    4.4330000000000602E+00    1.0450000000000145E+01
             7.1920000000000961E+00    7.3890000000001042E+00    1.0450000000000145E+01
             1.0148000000000140E+01    1.4780000000000213E+00    1.0450000000000145E+01
             1.0148000000000140E+01    4.4330000000000602E+00    1.0450000000000145E+01
             1.0148000000000140E+01    7.3890000000001042E+00    1.0450000000000145E+01
             1.3104000000000177E+01    1.4780000000000213E+00    1.0450000000000145E+01
             1.3104000000000177E+01    4.4330000000000602E+00    1.0450000000000145E+01
             1.3104000000000177E+01    7.3890000000001042E+00    1.0450000000000145E+01
             4.8554000000000750E+00    5.9119000000000801E+00    1.2031800000000176E+01
             9.5280000000001337E+00    5.9137000000000857E+00    1.2034000000000177E+01
             7.1920000000000961E+00    5.9340000000000916E+00    1.2040000000000177E+01
             4.0750319168000546E+00    5.9049488170000881E+00    1.2696844061800173E+01
             1.0293988349500138E+01    5.9062142779000757E+00    1.2716532694500197E+01
             6.0099999686000851E+00    5.9120523853000879E+00    1.2765819797400182E+01
             8.3750478948001188E+00    5.9129627335000796E+00    1.2760746495900175E+01
             8.4047327065001216E+00    5.8893877816000799E+00    1.4094060897200174E+01
             5.9788500869000902E+00    5.8882515165000768E+00    1.4094239568500205E+01
             7.1943473363000994E+00    5.8799164377000803E+00    1.4701118490300203E+01
             7.1912293097000992E+00    5.8521058221000883E+00    1.6050622658200243E+01
             6.3086348447000988E+00    5.8615539361000852E+00    1.6548439365000235E+01
             8.0709262665001198E+00    5.8621389354000790E+00    1.6553588809700237E+01
             7.3120000000001024E+00    5.9340000000000916E+00    2.1043000000000280E+01
             5.8130000000000823E+00    7.4340000000001094E+00    2.2992000000000349E+01
             8.8130000000001250E+00    4.4340000000000606E+00    2.2992000000000349E+01
             5.8130000000000823E+00    4.4330000000000602E+00    2.2992000000000349E+01
             8.8130000000001250E+00    7.4340000000001094E+00    2.2992000000000349E+01
             1.4780000000000213E+00    1.4780000000000213E+00    2.5082000000000299E+01
             1.4780000000000213E+00    4.4330000000000602E+00    2.5082000000000299E+01
             1.4780000000000213E+00    7.3890000000001042E+00    2.5082000000000299E+01
             4.4340000000000606E+00    1.4780000000000213E+00    2.5082000000000299E+01
             4.4340000000000606E+00    4.4330000000000602E+00    2.5082000000000299E+01
             4.4340000000000606E+00    7.3890000000001042E+00    2.5082000000000299E+01
             7.1920000000000961E+00    1.4780000000000213E+00    2.5082000000000299E+01
             7.1920000000000961E+00    4.4330000000000602E+00    2.5082000000000299E+01
             7.1920000000000961E+00    7.3890000000001042E+00    2.5082000000000299E+01
             1.0148000000000140E+01    1.4780000000000213E+00    2.5082000000000299E+01
             1.0148000000000140E+01    4.4330000000000602E+00    2.5082000000000299E+01
             1.0148000000000140E+01    7.3890000000001042E+00    2.5082000000000299E+01
             1.3104000000000177E+01    1.4780000000000213E+00    2.5082000000000299E+01
             1.3104000000000177E+01    4.4330000000000602E+00    2.5082000000000299E+01
             1.3104000000000177E+01    7.3890000000001042E+00    2.5082000000000299E+01
             0.0000000000000000E+00    0.0000000000000000E+00    2.7172000000000395E+01
             0.0000000000000000E+00    2.9550000000000378E+00    2.7172000000000395E+01
             0.0000000000000000E+00    5.9110000000000769E+00    2.7172000000000395E+01
             2.9560000000000426E+00    0.0000000000000000E+00    2.7172000000000395E+01
             2.9560000000000426E+00    2.9550000000000378E+00    2.7172000000000395E+01
             2.9560000000000426E+00    5.9110000000000769E+00    2.7172000000000395E+01
             5.9120000000000852E+00    0.0000000000000000E+00    2.7172000000000395E+01
             5.9120000000000852E+00    2.9550000000000378E+00    2.7172000000000395E+01
             5.9120000000000852E+00    5.9110000000000769E+00    2.7172000000000395E+01
             8.6700000000001296E+00    0.0000000000000000E+00    2.7172000000000395E+01
             8.6700000000001296E+00    2.9550000000000378E+00    2.7172000000000395E+01
             8.6700000000001296E+00    5.9110000000000769E+00    2.7172000000000395E+01
             1.1626000000000165E+01    0.0000000000000000E+00    2.7172000000000395E+01
             1.1626000000000165E+01    2.9550000000000378E+00    2.7172000000000395E+01
             1.1626000000000165E+01    5.9110000000000769E+00    2.7172000000000395E+01
             1.4780000000000213E+00    1.4780000000000213E+00    2.9262000000000381E+01
             1.4780000000000213E+00    4.4330000000000602E+00    2.9262000000000381E+01
             1.4780000000000213E+00    7.3890000000001042E+00    2.9262000000000381E+01
             4.4340000000000606E+00    1.4780000000000213E+00    2.9262000000000381E+01
             4.4340000000000606E+00    4.4330000000000602E+00    2.9262000000000381E+01
             4.4340000000000606E+00    7.3890000000001042E+00    2.9262000000000381E+01
             7.1920000000000961E+00    1.4780000000000213E+00    2.9262000000000381E+01
             7.1920000000000961E+00    4.4330000000000602E+00    2.9262000000000381E+01
             7.1920000000000961E+00    7.3890000000001042E+00    2.9262000000000381E+01
             1.0148000000000140E+01    1.4780000000000213E+00    2.9262000000000381E+01
             1.0148000000000140E+01    4.4330000000000602E+00    2.9262000000000381E+01
             1.0148000000000140E+01    7.3890000000001042E+00    2.9262000000000381E+01
             1.3104000000000177E+01    1.4780000000000213E+00    2.9262000000000381E+01
             1.3104000000000177E+01    4.4330000000000602E+00    2.9262000000000381E+01
             1.3104000000000177E+01    7.3890000000001042E+00    2.9262000000000381E+01
             0.0000000000000000E+00    0.0000000000000000E+00    3.1352000000000462E+01
             0.0000000000000000E+00    2.9550000000000378E+00    3.1352000000000462E+01
             0.0000000000000000E+00    5.9110000000000769E+00    3.1352000000000462E+01
             2.9560000000000426E+00    0.0000000000000000E+00    3.1352000000000462E+01
             2.9560000000000426E+00    2.9550000000000378E+00    3.1352000000000462E+01
             2.9560000000000426E+00    5.9110000000000769E+00    3.1352000000000462E+01
             5.9120000000000852E+00    0.0000000000000000E+00    3.1352000000000462E+01
             5.9120000000000852E+00    2.9550000000000378E+00    3.1352000000000462E+01
             5.9120000000000852E+00    5.9110000000000769E+00    3.1352000000000462E+01
             8.6700000000001296E+00    0.0000000000000000E+00    3.1352000000000462E+01
             8.6700000000001296E+00    2.9550000000000378E+00    3.1352000000000462E+01
             8.6700000000001296E+00    5.9110000000000769E+00    3.1352000000000462E+01
             1.1626000000000165E+01    0.0000000000000000E+00    3.1352000000000462E+01
             1.1626000000000165E+01    2.9550000000000378E+00    3.1352000000000462E+01
             1.1626000000000165E+01    5.9110000000000769E+00    3.1352000000000462E+01
             1.4780000000000213E+00    1.4780000000000213E+00    3.3442000000000476E+01
             1.4780000000000213E+00    4.4330000000000602E+00    3.3442000000000476E+01
             1.4780000000000213E+00    7.3890000000001042E+00    3.3442000000000476E+01
             4.4340000000000606E+00    1.4780000000000213E+00    3.3442000000000476E+01
             4.4340000000000606E+00    4.4330000000000602E+00    3.3442000000000476E+01
             4.4340000000000606E+00    7.3890000000001042E+00    3.3442000000000476E+01
             7.1920000000000961E+00    1.4780000000000213E+00    3.3442000000000476E+01
             7.1920000000000961E+00    4.4330000000000602E+00    3.3442000000000476E+01
             7.1920000000000961E+00    7.3890000000001042E+00    3.3442000000000476E+01
             1.0148000000000140E+01    1.4780000000000213E+00    3.3442000000000476E+01
             1.0148000000000140E+01    4.4330000000000602E+00    3.3442000000000476E+01
             1.0148000000000140E+01    7.3890000000001042E+00    3.3442000000000476E+01
             1.3104000000000177E+01    1.4780000000000213E+00    3.3442000000000476E+01
             1.3104000000000177E+01    4.4330000000000602E+00    3.3442000000000476E+01
             1.3104000000000177E+01    7.3890000000001042E+00    3.3442000000000476E+01
       &END COORD
       &VELOCITY
             0.0000000000000000E+00    0.0000000000000000E+00    0.0000000000000000E+00
             0.0000000000000000E+00    0.0000000000000000E+00    0.0000000000000000E+00
             0.0000000000000000E+00    0.0000000000000000E+00    0.0000000000000000E+00
             0.0000000000000000E+00    0.0000000000000000E+00    0.0000000000000000E+00
             0.0000000000000000E+00    0.0000000000000000E+00    0.0000000000000000E+00
             0.0000000000000000E+00    0.0000000000000000E+00    0.0000000000000000E+00
             0.0000000000000000E+00    0.0000000000000000E+00    0.0000000000000000E+00
             0.0000000000000000E+00    0.0000000000000000E+00    0.0000000000000000E+00
             0.0000000000000000E+00    0.0000000000000000E+00    0.0000000000000000E+00
             0.0000000000000000E+00    0.0000000000000000E+00    0.0000000000000000E+00
             0.0000000000000000E+00    0.0000000000000000E+00    0.0000000000000000E+00
             0.0000000000000000E+00    0.0000000000000000E+00    0.0000000000000000E+00
             0.0000000000000000E+00    0.0000000000000000E+00    0.0000000000000000E+00
             0.0000000000000000E+00    0.0000000000000000E+00    0.0000000000000000E+00
             0.0000000000000000E+00    0.0000000000000000E+00    0.0000000000000000E+00
             0.0000000000000000E+00    0.0000000000000000E+00    0.0000000000000000E+00
             0.0000000000000000E+00    0.0000000000000000E+00    0.0000000000000000E+00
             0.0000000000000000E+00    0.0000000000000000E+00    0.0000000000000000E+00
             0.0000000000000000E+00    0.0000000000000000E+00    0.0000000000000000E+00
             0.0000000000000000E+00    0.0000000000000000E+00    0.0000000000000000E+00
             0.0000000000000000E+00    0.0000000000000000E+00    0.0000000000000000E+00
             0.0000000000000000E+00    0.0000000000000000E+00    0.0000000000000000E+00
             0.0000000000000000E+00    0.0000000000000000E+00    0.0000000000000000E+00
             0.0000000000000000E+00    0.0000000000000000E+00    0.0000000000000000E+00
             0.0000000000000000E+00    0.0000000000000000E+00    0.0000000000000000E+00
             0.0000000000000000E+00    0.0000000000000000E+00    0.0000000000000000E+00
             0.0000000000000000E+00    0.0000000000000000E+00    0.0000000000000000E+00
             0.0000000000000000E+00    0.0000000000000000E+00    0.0000000000000000E+00
             0.0000000000000000E+00    0.0000000000000000E+00    0.0000000000000000E+00
             0.0000000000000000E+00    0.0000000000000000E+00    0.0000000000000000E+00
             0.0000000000000000E+00    0.0000000000000000E+00    0.0000000000000000E+00
             0.0000000000000000E+00    0.0000000000000000E+00    0.0000000000000000E+00
             0.0000000000000000E+00    0.0000000000000000E+00    0.0000000000000000E+00
             0.0000000000000000E+00    0.0000000000000000E+00    0.0000000000000000E+00
             0.0000000000000000E+00    0.0000000000000000E+00    0.0000000000000000E+00
             0.0000000000000000E+00    0.0000000000000000E+00    0.0000000000000000E+00
             0.0000000000000000E+00    0.0000000000000000E+00    0.0000000000000000E+00
             0.0000000000000000E+00    0.0000000000000000E+00    0.0000000000000000E+00
             0.0000000000000000E+00    0.0000000000000000E+00    0.0000000000000000E+00
             0.0000000000000000E+00    0.0000000000000000E+00    0.0000000000000000E+00
             0.0000000000000000E+00    0.0000000000000000E+00    0.0000000000000000E+00
             0.0000000000000000E+00    0.0000000000000000E+00    0.0000000000000000E+00
             0.0000000000000000E+00    0.0000000000000000E+00    0.0000000000000000E+00
             0.0000000000000000E+00    0.0000000000000000E+00    0.0000000000000000E+00
             0.0000000000000000E+00    0.0000000000000000E+00    0.0000000000000000E+00
             0.0000000000000000E+00    0.0000000000000000E+00    0.0000000000000000E+00
             0.0000000000000000E+00    0.0000000000000000E+00    0.0000000000000000E+00
             0.0000000000000000E+00    0.0000000000000000E+00    0.0000000000000000E+00
             0.0000000000000000E+00    0.0000000000000000E+00    0.0000000000000000E+00
             0.0000000000000000E+00    0.0000000000000000E+00    0.0000000000000000E+00
             0.0000000000000000E+00    0.0000000000000000E+00    0.0000000000000000E+00
             0.0000000000000000E+00    0.0000000000000000E+00    0.0000000000000000E+00
             0.0000000000000000E+00    0.0000000000000000E+00    0.0000000000000000E+00
             0.0000000000000000E+00    0.0000000000000000E+00    0.0000000000000000E+00
             0.0000000000000000E+00    0.0000000000000000E+00    0.0000000000000000E+00
             0.0000000000000000E+00    0.0000000000000000E+00    0.0000000000000000E+00
             0.0000000000000000E+00    0.0000000000000000E+00    0.0000000000000000E+00
             0.0000000000000000E+00    0.0000000000000000E+00    0.0000000000000000E+00
             0.0000000000000000E+00    0.0000000000000000E+00    0.0000000000000000E+00
             0.0000000000000000E+00    0.0000000000000000E+00    0.0000000000000000E+00
             0.0000000000000000E+00    0.0000000000000000E+00    0.0000000000000000E+00
             0.0000000000000000E+00    0.0000000000000000E+00    0.0000000000000000E+00
             0.0000000000000000E+00    0.0000000000000000E+00    0.0000000000000000E+00
             0.0000000000000000E+00    0.0000000000000000E+00    0.0000000000000000E+00
             0.0000000000000000E+00    0.0000000000000000E+00    0.0000000000000000E+00
             0.0000000000000000E+00    0.0000000000000000E+00    0.0000000000000000E+00
             0.0000000000000000E+00    0.0000000000000000E+00    0.0000000000000000E+00
             0.0000000000000000E+00    0.0000000000000000E+00    0.0000000000000000E+00
             0.0000000000000000E+00    0.0000000000000000E+00    0.0000000000000000E+00
             0.0000000000000000E+00    0.0000000000000000E+00    0.0000000000000000E+00
             0.0000000000000000E+00    0.0000000000000000E+00    0.0000000000000000E+00
             0.0000000000000000E+00    0.0000000000000000E+00    0.0000000000000000E+00
             0.0000000000000000E+00    0.0000000000000000E+00    0.0000000000000000E+00
             0.0000000000000000E+00    0.0000000000000000E+00    0.0000000000000000E+00
             0.0000000000000000E+00    0.0000000000000000E+00    0.0000000000000000E+00
             0.0000000000000000E+00    0.0000000000000000E+00    0.0000000000000000E+00
             0.0000000000000000E+00    0.0000000000000000E+00    0.0000000000000000E+00
             0.0000000000000000E+00    0.0000000000000000E+00    0.0000000000000000E+00
             0.0000000000000000E+00    0.0000000000000000E+00    0.0000000000000000E+00
             0.0000000000000000E+00    0.0000000000000000E+00    0.0000000000000000E+00
             0.0000000000000000E+00    0.0000000000000000E+00    0.0000000000000000E+00
             0.0000000000000000E+00    0.0000000000000000E+00    0.0000000000000000E+00
             0.0000000000000000E+00    0.0000000000000000E+00    0.0000000000000000E+00
             0.0000000000000000E+00    0.0000000000000000E+00    0.0000000000000000E+00
             0.0000000000000000E+00    0.0000000000000000E+00    0.0000000000000000E+00
             0.0000000000000000E+00    0.0000000000000000E+00    0.0000000000000000E+00
             0.0000000000000000E+00    0.0000000000000000E+00    0.0000000000000000E+00
             0.0000000000000000E+00    0.0000000000000000E+00    0.0000000000000000E+00
             0.0000000000000000E+00    0.0000000000000000E+00    0.0000000000000000E+00
             0.0000000000000000E+00    0.0000000000000000E+00    0.0000000000000000E+00
             0.0000000000000000E+00    0.0000000000000000E+00    0.0000000000000000E+00
             0.0000000000000000E+00    0.0000000000000000E+00    0.0000000000000000E+00
             0.0000000000000000E+00    0.0000000000000000E+00    0.0000000000000000E+00
             0.0000000000000000E+00    0.0000000000000000E+00    0.0000000000000000E+00
             0.0000000000000000E+00    0.0000000000000000E+00    0.0000000000000000E+00
             0.0000000000000000E+00    0.0000000000000000E+00    0.0000000000000000E+00
             0.0000000000000000E+00    0.0000000000000000E+00    0.0000000000000000E+00
             0.0000000000000000E+00    0.0000000000000000E+00    0.0000000000000000E+00
             0.0000000000000000E+00    0.0000000000000000E+00    0.0000000000000000E+00
             0.0000000000000000E+00    0.0000000000000000E+00    0.0000000000000000E+00
             0.0000000000000000E+00    0.0000000000000000E+00    0.0000000000000000E+00
             0.0000000000000000E+00    0.0000000000000000E+00    0.0000000000000000E+00
             0.0000000000000000E+00    0.0000000000000000E+00    0.0000000000000000E+00
             0.0000000000000000E+00    0.0000000000000000E+00    0.0000000000000000E+00
             0.0000000000000000E+00    0.0000000000000000E+00    0.0000000000000000E+00
             0.0000000000000000E+00    0.0000000000000000E+00    0.0000000000000000E+00
             0.0000000000000000E+00    0.0000000000000000E+00    0.0000000000000000E+00
             0.0000000000000000E+00    0.0000000000000000E+00    0.0000000000000000E+00
             0.0000000000000000E+00    0.0000000000000000E+00    0.0000000000000000E+00
             0.0000000000000000E+00    0.0000000000000000E+00    0.0000000000000000E+00
             0.0000000000000000E+00    0.0000000000000000E+00    0.0000000000000000E+00
             0.0000000000000000E+00    0.0000000000000000E+00    0.0000000000000000E+00
             0.0000000000000000E+00    0.0000000000000000E+00    0.0000000000000000E+00
             0.0000000000000000E+00    0.0000000000000000E+00    0.0000000000000000E+00
             0.0000000000000000E+00    0.0000000000000000E+00    0.0000000000000000E+00
             0.0000000000000000E+00    0.0000000000000000E+00    0.0000000000000000E+00
             0.0000000000000000E+00    0.0000000000000000E+00    0.0000000000000000E+00
             0.0000000000000000E+00    0.0000000000000000E+00    0.0000000000000000E+00
             0.0000000000000000E+00    0.0000000000000000E+00    0.0000000000000000E+00
             0.0000000000000000E+00    0.0000000000000000E+00    0.0000000000000000E+00
             0.0000000000000000E+00    0.0000000000000000E+00    0.0000000000000000E+00
             0.0000000000000000E+00    0.0000000000000000E+00    0.0000000000000000E+00
             0.0000000000000000E+00    0.0000000000000000E+00    0.0000000000000000E+00
             0.0000000000000000E+00    0.0000000000000000E+00    0.0000000000000000E+00
             0.0000000000000000E+00    0.0000000000000000E+00    0.0000000000000000E+00
             0.0000000000000000E+00    0.0000000000000000E+00    0.0000000000000000E+00
             0.0000000000000000E+00    0.0000000000000000E+00    0.0000000000000000E+00
             0.0000000000000000E+00    0.0000000000000000E+00    0.0000000000000000E+00
             0.0000000000000000E+00    0.0000000000000000E+00    0.0000000000000000E+00
             0.0000000000000000E+00    0.0000000000000000E+00    0.0000000000000000E+00
             0.0000000000000000E+00    0.0000000000000000E+00    0.0000000000000000E+00
             0.0000000000000000E+00    0.0000000000000000E+00    0.0000000000000000E+00
             0.0000000000000000E+00    0.0000000000000000E+00    0.0000000000000000E+00
             0.0000000000000000E+00    0.0000000000000000E+00    0.0000000000000000E+00
             0.0000000000000000E+00    0.0000000000000000E+00    0.0000000000000000E+00
             0.0000000000000000E+00    0.0000000000000000E+00    0.0000000000000000E+00
             0.0000000000000000E+00    0.0000000000000000E+00    0.0000000000000000E+00
             0.0000000000000000E+00    0.0000000000000000E+00    0.0000000000000000E+00
             0.0000000000000000E+00    0.0000000000000000E+00    0.0000000000000000E+00
             0.0000000000000000E+00    0.0000000000000000E+00    0.0000000000000000E+00
             0.0000000000000000E+00    0.0000000000000000E+00    0.0000000000000000E+00
             0.0000000000000000E+00    0.0000000000000000E+00    0.0000000000000000E+00
             0.0000000000000000E+00    0.0000000000000000E+00    0.0000000000000000E+00
             0.0000000000000000E+00    0.0000000000000000E+00    0.0000000000000000E+00
             0.0000000000000000E+00    0.0000000000000000E+00    0.0000000000000000E+00