 # Version information for this restart file 
 # current date 2024-01-12 16:44:31.226
 # current working dir /gpfs/home/cahart/transport/melamine/au_from-h2/ci-neb/ts1/dft_leads-sz_tip-dzvp_surf-dzvp_kpoints-2-4-20_replicas-5
 # Program compiled at                              Thu 21 Sep 19:20:17 BST 2023
 # Program compiled on                                           hx1-c12-login-1
 # Program compiled for                                                    local
 # Source code revision number                                       git:5518aa6
 &GLOBAL
   EXTENDED_FFT_LENGTHS  T
   PRINT_LEVEL  MEDIUM
   PROJECT_NAME 2_dft_wfn-r-0
   OUTPUT_FILE_NAME 2_dft_wfn-r-0.out
   RUN_TYPE  BAND
 &END GLOBAL
 &MOTION
   &BAND
     NPROC_REP  64
     BAND_TYPE  CI-NEB
     NUMBER_OF_REPLICA  5
     K_SPRING     5.0000000000000003E-02
     &CI_NEB
       NSTEPS_IT  5
     &END CI_NEB
     &OPTIMIZE_BAND
       OPT_TYPE  DIIS
       &DIIS
         MAX_STEPS  1000
       &END DIIS
     &END OPTIMIZE_BAND
     &REPLICA
       &COORD
             0.0000000000000000E+00    0.0000000000000000E+00    0.0000000000000000E+00
             0.0000000000000000E+00    2.9550000000000178E+00    0.0000000000000000E+00
             0.0000000000000000E+00    5.9110000000000360E+00    0.0000000000000000E+00
             2.9560000000000173E+00    0.0000000000000000E+00    0.0000000000000000E+00
             2.9560000000000173E+00    2.9550000000000178E+00    0.0000000000000000E+00
             2.9560000000000173E+00    5.9110000000000360E+00    0.0000000000000000E+00
             5.9120000000000346E+00    0.0000000000000000E+00    0.0000000000000000E+00
             5.9120000000000346E+00    2.9550000000000178E+00    0.0000000000000000E+00
             5.9120000000000346E+00    5.9110000000000360E+00    0.0000000000000000E+00
             8.6700000000000514E+00    0.0000000000000000E+00    0.0000000000000000E+00
             8.6700000000000514E+00    2.9550000000000178E+00    0.0000000000000000E+00
             8.6700000000000514E+00    5.9110000000000360E+00    0.0000000000000000E+00
             1.1626000000000072E+01    0.0000000000000000E+00    0.0000000000000000E+00
             1.1626000000000072E+01    2.9550000000000178E+00    0.0000000000000000E+00
             1.1626000000000072E+01    5.9110000000000360E+00    0.0000000000000000E+00
             1.4780000000000086E+00    1.4780000000000086E+00    2.0900000000000114E+00
             1.4780000000000086E+00    4.4330000000000274E+00    2.0900000000000114E+00
             1.4780000000000086E+00    7.3890000000000473E+00    2.0900000000000114E+00
             4.4340000000000250E+00    1.4780000000000086E+00    2.0900000000000114E+00
             4.4340000000000250E+00    4.4330000000000274E+00    2.0900000000000114E+00
             4.4340000000000250E+00    7.3890000000000473E+00    2.0900000000000114E+00
             7.1920000000000437E+00    1.4780000000000086E+00    2.0900000000000114E+00
             7.1920000000000437E+00    4.4330000000000274E+00    2.0900000000000114E+00
             7.1920000000000437E+00    7.3890000000000473E+00    2.0900000000000114E+00
             1.0148000000000057E+01    1.4780000000000086E+00    2.0900000000000114E+00
             1.0148000000000057E+01    4.4330000000000274E+00    2.0900000000000114E+00
             1.0148000000000057E+01    7.3890000000000473E+00    2.0900000000000114E+00
             1.3104000000000076E+01    1.4780000000000086E+00    2.0900000000000114E+00
             1.3104000000000076E+01    4.4330000000000274E+00    2.0900000000000114E+00
             1.3104000000000076E+01    7.3890000000000473E+00    2.0900000000000114E+00
             0.0000000000000000E+00    0.0000000000000000E+00    4.1800000000000228E+00
             0.0000000000000000E+00    2.9550000000000178E+00    4.1800000000000228E+00
             0.0000000000000000E+00    5.9110000000000360E+00    4.1800000000000228E+00
             2.9560000000000173E+00    0.0000000000000000E+00    4.1800000000000228E+00
             2.9560000000000173E+00    2.9550000000000178E+00    4.1800000000000228E+00
             2.9560000000000173E+00    5.9110000000000360E+00    4.1800000000000228E+00
             5.9120000000000346E+00    0.0000000000000000E+00    4.1800000000000228E+00
             5.9120000000000346E+00    2.9550000000000178E+00    4.1800000000000228E+00
             5.9120000000000346E+00    5.9110000000000360E+00    4.1800000000000228E+00
             8.6700000000000514E+00    0.0000000000000000E+00    4.1800000000000228E+00
             8.6700000000000514E+00    2.9550000000000178E+00    4.1800000000000228E+00
             8.6700000000000514E+00    5.9110000000000360E+00    4.1800000000000228E+00
             1.1626000000000072E+01    0.0000000000000000E+00    4.1800000000000228E+00
             1.1626000000000072E+01    2.9550000000000178E+00    4.1800000000000228E+00
             1.1626000000000072E+01    5.9110000000000360E+00    4.1800000000000228E+00
             1.4780000000000086E+00    1.4780000000000086E+00    6.2700000000000342E+00
             1.4780000000000086E+00    4.4330000000000274E+00    6.2700000000000342E+00
             1.4780000000000086E+00    7.3890000000000473E+00    6.2700000000000342E+00
             4.4340000000000250E+00    1.4780000000000086E+00    6.2700000000000342E+00
             4.4340000000000250E+00    4.4330000000000274E+00    6.2700000000000342E+00
             4.4340000000000250E+00    7.3890000000000473E+00    6.2700000000000342E+00
             7.1920000000000437E+00    1.4780000000000086E+00    6.2700000000000342E+00
             7.1920000000000437E+00    4.4330000000000274E+00    6.2700000000000342E+00
             7.1920000000000437E+00    7.3890000000000473E+00    6.2700000000000342E+00
             1.0148000000000057E+01    1.4780000000000086E+00    6.2700000000000342E+00
             1.0148000000000057E+01    4.4330000000000274E+00    6.2700000000000342E+00
             1.0148000000000057E+01    7.3890000000000473E+00    6.2700000000000342E+00
             1.3104000000000076E+01    1.4780000000000086E+00    6.2700000000000342E+00
             1.3104000000000076E+01    4.4330000000000274E+00    6.2700000000000342E+00
             1.3104000000000076E+01    7.3890000000000473E+00    6.2700000000000342E+00
             0.0000000000000000E+00    0.0000000000000000E+00    8.3600000000000456E+00
             0.0000000000000000E+00    2.9550000000000178E+00    8.3600000000000456E+00
             0.0000000000000000E+00    5.9110000000000360E+00    8.3600000000000456E+00
             2.9560000000000173E+00    0.0000000000000000E+00    8.3600000000000456E+00
             2.9560000000000173E+00    2.9550000000000178E+00    8.3600000000000456E+00
             2.9560000000000173E+00    5.9110000000000360E+00    8.3600000000000456E+00
             5.9120000000000346E+00    0.0000000000000000E+00    8.3600000000000456E+00
             5.9120000000000346E+00    2.9550000000000178E+00    8.3600000000000456E+00
             5.9120000000000346E+00    5.9110000000000360E+00    8.3600000000000456E+00
             8.6700000000000514E+00    0.0000000000000000E+00    8.3600000000000456E+00
             8.6700000000000514E+00    2.9550000000000178E+00    8.3600000000000456E+00
             8.6700000000000514E+00    5.9110000000000360E+00    8.3600000000000456E+00
             1.1626000000000072E+01    0.0000000000000000E+00    8.3600000000000456E+00
             1.1626000000000072E+01    2.9550000000000178E+00    8.3600000000000456E+00
             1.1626000000000072E+01    5.9110000000000360E+00    8.3600000000000456E+00
             1.4780000000000086E+00    1.4780000000000086E+00    1.0450000000000063E+01
             1.4780000000000086E+00    4.4330000000000274E+00    1.0450000000000063E+01
             1.4780000000000086E+00    7.3890000000000473E+00    1.0450000000000063E+01
             4.4340000000000250E+00    1.4780000000000086E+00    1.0450000000000063E+01
             4.4340000000000250E+00    4.4330000000000274E+00    1.0450000000000063E+01
             4.4340000000000250E+00    7.3890000000000473E+00    1.0450000000000063E+01
             7.1920000000000437E+00    1.4780000000000086E+00    1.0450000000000063E+01
             7.1920000000000437E+00    4.4330000000000274E+00    1.0450000000000063E+01
             7.1920000000000437E+00    7.3890000000000473E+00    1.0450000000000063E+01
             1.0148000000000057E+01    1.4780000000000086E+00    1.0450000000000063E+01
             1.0148000000000057E+01    4.4330000000000274E+00    1.0450000000000063E+01
             1.0148000000000057E+01    7.3890000000000473E+00    1.0450000000000063E+01
             1.3104000000000076E+01    1.4780000000000086E+00    1.0450000000000063E+01
             1.3104000000000076E+01    4.4330000000000274E+00    1.0450000000000063E+01
             1.3104000000000076E+01    7.3890000000000473E+00    1.0450000000000063E+01
             4.8554000000000297E+00    5.9119000000000357E+00    1.2031800000000068E+01
             9.5280000000000555E+00    5.9137000000000350E+00    1.2034000000000079E+01
             7.1920000000000437E+00    5.9340000000000375E+00    1.2040000000000067E+01
             4.0750319168000217E+00    5.9049488170000330E+00    1.2696844061800078E+01
             1.0293988349500056E+01    5.9062142779000339E+00    1.2716532694500076E+01
             6.0099999686000389E+00    5.9120523853000346E+00    1.2765819797400077E+01
             8.3750478948000460E+00    5.9129627335000317E+00    1.2760746495900070E+01
             8.4047327065000470E+00    5.8893877816000364E+00    1.4094060897200080E+01
             5.9788500869000369E+00    5.8882515165000324E+00    1.4094239568500079E+01
             7.1943473363000434E+00    5.8799164377000315E+00    1.4701118490300088E+01
             7.1912293097000406E+00    5.8521058221000342E+00    1.6050622658200098E+01
             6.3086348447000384E+00    5.8615539361000355E+00    1.6548439365000100E+01
             8.0709262665000470E+00    5.8621389354000319E+00    1.6553588809700095E+01
             7.3120000000000429E+00    5.9340000000000375E+00    2.1043000000000109E+01
             5.8130000000000361E+00    7.4340000000000437E+00    2.2992000000000143E+01
             8.8130000000000503E+00    4.4340000000000250E+00    2.2992000000000143E+01
             5.8130000000000361E+00    4.4330000000000274E+00    2.2992000000000143E+01
             8.8130000000000503E+00    7.4340000000000437E+00    2.2992000000000143E+01
             1.4780000000000086E+00    1.4780000000000086E+00    2.5082000000000136E+01
             1.4780000000000086E+00    4.4330000000000274E+00    2.5082000000000136E+01
             1.4780000000000086E+00    7.3890000000000473E+00    2.5082000000000136E+01
             4.4340000000000250E+00    1.4780000000000086E+00    2.5082000000000136E+01
             4.4340000000000250E+00    4.4330000000000274E+00    2.5082000000000136E+01
             4.4340000000000250E+00    7.3890000000000473E+00    2.5082000000000136E+01
             7.1920000000000437E+00    1.4780000000000086E+00    2.5082000000000136E+01
             7.1920000000000437E+00    4.4330000000000274E+00    2.5082000000000136E+01
             7.1920000000000437E+00    7.3890000000000473E+00    2.5082000000000136E+01
             1.0148000000000057E+01    1.4780000000000086E+00    2.5082000000000136E+01
             1.0148000000000057E+01    4.4330000000000274E+00    2.5082000000000136E+01
             1.0148000000000057E+01    7.3890000000000473E+00    2.5082000000000136E+01
             1.3104000000000076E+01    1.4780000000000086E+00    2.5082000000000136E+01
             1.3104000000000076E+01    4.4330000000000274E+00    2.5082000000000136E+01
             1.3104000000000076E+01    7.3890000000000473E+00    2.5082000000000136E+01
             0.0000000000000000E+00    0.0000000000000000E+00    2.7172000000000157E+01
             0.0000000000000000E+00    2.9550000000000178E+00    2.7172000000000157E+01
             0.0000000000000000E+00    5.9110000000000360E+00    2.7172000000000157E+01
             2.9560000000000173E+00    0.0000000000000000E+00    2.7172000000000157E+01
             2.9560000000000173E+00    2.9550000000000178E+00    2.7172000000000157E+01
             2.9560000000000173E+00    5.9110000000000360E+00    2.7172000000000157E+01
             5.9120000000000346E+00    0.0000000000000000E+00    2.7172000000000157E+01
             5.9120000000000346E+00    2.9550000000000178E+00    2.7172000000000157E+01
             5.9120000000000346E+00    5.9110000000000360E+00    2.7172000000000157E+01
             8.6700000000000514E+00    0.0000000000000000E+00    2.7172000000000157E+01
             8.6700000000000514E+00    2.9550000000000178E+00    2.7172000000000157E+01
             8.6700000000000514E+00    5.9110000000000360E+00    2.7172000000000157E+01
             1.1626000000000072E+01    0.0000000000000000E+00    2.7172000000000157E+01
             1.1626000000000072E+01    2.9550000000000178E+00    2.7172000000000157E+01
             1.1626000000000072E+01    5.9110000000000360E+00    2.7172000000000157E+01
             1.4780000000000086E+00    1.4780000000000086E+00    2.9262000000000164E+01
             1.4780000000000086E+00    4.4330000000000274E+00    2.9262000000000164E+01
             1.4780000000000086E+00    7.3890000000000473E+00    2.9262000000000164E+01
             4.4340000000000250E+00    1.4780000000000086E+00    2.9262000000000164E+01
             4.4340000000000250E+00    4.4330000000000274E+00    2.9262000000000164E+01
             4.4340000000000250E+00    7.3890000000000473E+00    2.9262000000000164E+01
             7.1920000000000437E+00    1.4780000000000086E+00    2.9262000000000164E+01
             7.1920000000000437E+00    4.4330000000000274E+00    2.9262000000000164E+01
             7.1920000000000437E+00    7.3890000000000473E+00    2.9262000000000164E+01
             1.0148000000000057E+01    1.4780000000000086E+00    2.9262000000000164E+01
             1.0148000000000057E+01    4.4330000000000274E+00    2.9262000000000164E+01
             1.0148000000000057E+01    7.3890000000000473E+00    2.9262000000000164E+01
             1.3104000000000076E+01    1.4780000000000086E+00    2.9262000000000164E+01
             1.3104000000000076E+01    4.4330000000000274E+00    2.9262000000000164E+01
             1.3104000000000076E+01    7.3890000000000473E+00    2.9262000000000164E+01
             0.0000000000000000E+00    0.0000000000000000E+00    3.1352000000000174E+01
             0.0000000000000000E+00    2.9550000000000178E+00    3.1352000000000174E+01
             0.0000000000000000E+00    5.9110000000000360E+00    3.1352000000000174E+01
             2.9560000000000173E+00    0.0000000000000000E+00    3.1352000000000174E+01
             2.9560000000000173E+00    2.9550000000000178E+00    3.1352000000000174E+01
             2.9560000000000173E+00    5.9110000000000360E+00    3.1352000000000174E+01
             5.9120000000000346E+00    0.0000000000000000E+00    3.1352000000000174E+01
             5.9120000000000346E+00    2.9550000000000178E+00    3.1352000000000174E+01
             5.9120000000000346E+00    5.9110000000000360E+00    3.1352000000000174E+01
             8.6700000000000514E+00    0.0000000000000000E+00    3.1352000000000174E+01
             8.6700000000000514E+00    2.9550000000000178E+00    3.1352000000000174E+01
             8.6700000000000514E+00    5.9110000000000360E+00    3.1352000000000174E+01
             1.1626000000000072E+01    0.0000000000000000E+00    3.1352000000000174E+01
             1.1626000000000072E+01    2.9550000000000178E+00    3.1352000000000174E+01
             1.1626000000000072E+01    5.9110000000000360E+00    3.1352000000000174E+01
             1.4780000000000086E+00    1.4780000000000086E+00    3.3442000000000199E+01
             1.4780000000000086E+00    4.4330000000000274E+00    3.3442000000000199E+01
             1.4780000000000086E+00    7.3890000000000473E+00    3.3442000000000199E+01
             4.4340000000000250E+00    1.4780000000000086E+00    3.3442000000000199E+01
             4.4340000000000250E+00    4.4330000000000274E+00    3.3442000000000199E+01
             4.4340000000000250E+00    7.3890000000000473E+00    3.3442000000000199E+01
             7.1920000000000437E+00    1.4780000000000086E+00    3.3442000000000199E+01
             7.1920000000000437E+00    4.4330000000000274E+00    3.3442000000000199E+01
             7.1920000000000437E+00    7.3890000000000473E+00    3.3442000000000199E+01
             1.0148000000000057E+01    1.4780000000000086E+00    3.3442000000000199E+01
             1.0148000000000057E+01    4.4330000000000274E+00    3.3442000000000199E+01
             1.0148000000000057E+01    7.3890000000000473E+00    3.3442000000000199E+01
             1.3104000000000076E+01    1.4780000000000086E+00    3.3442000000000199E+01
             1.3104000000000076E+01    4.4330000000000274E+00    3.3442000000000199E+01
             1.3104000000000076E+01    7.3890000000000473E+00    3.3442000000000199E+01
       &END COORD
       &VELOCITY
             0.0000000000000000E+00    0.0000000000000000E+00    0.0000000000000000E+00
             0.0000000000000000E+00    0.0000000000000000E+00    0.0000000000000000E+00
             0.0000000000000000E+00    0.0000000000000000E+00    0.0000000000000000E+00
             0.0000000000000000E+00    0.0000000000000000E+00    0.0000000000000000E+00
             0.0000000000000000E+00    0.0000000000000000E+00    0.0000000000000000E+00
             0.0000000000000000E+00    0.0000000000000000E+00    0.0000000000000000E+00
             0.0000000000000000E+00    0.0000000000000000E+00    0.0000000000000000E+00
             0.0000000000000000E+00    0.0000000000000000E+00    0.0000000000000000E+00
             0.0000000000000000E+00    0.0000000000000000E+00    0.0000000000000000E+00
             0.0000000000000000E+00    0.0000000000000000E+00    0.0000000000000000E+00
             0.0000000000000000E+00    0.0000000000000000E+00    0.0000000000000000E+00
             0.0000000000000000E+00    0.0000000000000000E+00    0.0000000000000000E+00
             0.0000000000000000E+00    0.0000000000000000E+00    0.0000000000000000E+00
             0.0000000000000000E+00    0.0000000000000000E+00    0.0000000000000000E+00
             0.0000000000000000E+00    0.0000000000000000E+00    0.0000000000000000E+00
             0.0000000000000000E+00    0.0000000000000000E+00    0.0000000000000000E+00
             0.0000000000000000E+00    0.0000000000000000E+00    0.0000000000000000E+00
             0.0000000000000000E+00    0.0000000000000000E+00    0.0000000000000000E+00
             0.0000000000000000E+00    0.0000000000000000E+00    0.0000000000000000E+00
             0.0000000000000000E+00    0.0000000000000000E+00    0.0000000000000000E+00
             0.0000000000000000E+00    0.0000000000000000E+00    0.0000000000000000E+00
             0.0000000000000000E+00    0.0000000000000000E+00    0.0000000000000000E+00
             0.0000000000000000E+00    0.0000000000000000E+00    0.0000000000000000E+00
             0.0000000000000000E+00    0.0000000000000000E+00    0.0000000000000000E+00
             0.0000000000000000E+00    0.0000000000000000E+00    0.0000000000000000E+00
             0.0000000000000000E+00    0.0000000000000000E+00    0.0000000000000000E+00
             0.0000000000000000E+00    0.0000000000000000E+00    0.0000000000000000E+00
             0.0000000000000000E+00    0.0000000000000000E+00    0.0000000000000000E+00
             0.0000000000000000E+00    0.0000000000000000E+00    0.0000000000000000E+00
             0.0000000000000000E+00    0.0000000000000000E+00    0.0000000000000000E+00
             0.0000000000000000E+00    0.0000000000000000E+00    0.0000000000000000E+00
             0.0000000000000000E+00    0.0000000000000000E+00    0.0000000000000000E+00
             0.0000000000000000E+00    0.0000000000000000E+00    0.0000000000000000E+00
             0.0000000000000000E+00    0.0000000000000000E+00    0.0000000000000000E+00
             0.0000000000000000E+00    0.0000000000000000E+00    0.0000000000000000E+00
             0.0000000000000000E+00    0.0000000000000000E+00    0.0000000000000000E+00
             0.0000000000000000E+00    0.0000000000000000E+00    0.0000000000000000E+00
             0.0000000000000000E+00    0.0000000000000000E+00    0.0000000000000000E+00
             0.0000000000000000E+00    0.0000000000000000E+00    0.0000000000000000E+00
             0.0000000000000000E+00    0.0000000000000000E+00    0.0000000000000000E+00
             0.0000000000000000E+00    0.0000000000000000E+00    0.0000000000000000E+00
             0.0000000000000000E+00    0.0000000000000000E+00    0.0000000000000000E+00
             0.0000000000000000E+00    0.0000000000000000E+00    0.0000000000000000E+00
             0.0000000000000000E+00    0.0000000000000000E+00    0.0000000000000000E+00
             0.0000000000000000E+00    0.0000000000000000E+00    0.0000000000000000E+00
             0.0000000000000000E+00    0.0000000000000000E+00    0.0000000000000000E+00
             0.0000000000000000E+00    0.0000000000000000E+00    0.0000000000000000E+00
             0.0000000000000000E+00    0.0000000000000000E+00    0.0000000000000000E+00
             0.0000000000000000E+00    0.0000000000000000E+00    0.0000000000000000E+00
             0.0000000000000000E+00    0.0000000000000000E+00    0.0000000000000000E+00
             0.0000000000000000E+00    0.0000000000000000E+00    0.0000000000000000E+00
             0.0000000000000000E+00    0.0000000000000000E+00    0.0000000000000000E+00
             0.0000000000000000E+00    0.0000000000000000E+00    0.0000000000000000E+00
             0.0000000000000000E+00    0.0000000000000000E+00    0.0000000000000000E+00
             0.0000000000000000E+00    0.0000000000000000E+00    0.0000000000000000E+00
             0.0000000000000000E+00    0.0000000000000000E+00    0.0000000000000000E+00
             0.0000000000000000E+00    0.0000000000000000E+00    0.0000000000000000E+00
             0.0000000000000000E+00    0.0000000000000000E+00    0.0000000000000000E+00
             0.0000000000000000E+00    0.0000000000000000E+00    0.0000000000000000E+00
             0.0000000000000000E+00    0.0000000000000000E+00    0.0000000000000000E+00
             0.0000000000000000E+00    0.0000000000000000E+00    0.0000000000000000E+00
             0.0000000000000000E+00    0.0000000000000000E+00    0.0000000000000000E+00
             0.0000000000000000E+00    0.0000000000000000E+00    0.0000000000000000E+00
             0.0000000000000000E+00    0.0000000000000000E+00    0.0000000000000000E+00
             0.0000000000000000E+00    0.0000000000000000E+00    0.0000000000000000E+00
             0.0000000000000000E+00    0.0000000000000000E+00    0.0000000000000000E+00
             0.0000000000000000E+00    0.0000000000000000E+00    0.0000000000000000E+00
             0.0000000000000000E+00    0.0000000000000000E+00    0.0000000000000000E+00
             0.0000000000000000E+00    0.0000000000000000E+00    0.0000000000000000E+00
             0.0000000000000000E+00    0.0000000000000000E+00    0.0000000000000000E+00
             0.0000000000000000E+00    0.0000000000000000E+00    0.0000000000000000E+00
             0.0000000000000000E+00    0.0000000000000000E+00    0.0000000000000000E+00
             0.0000000000000000E+00    0.0000000000000000E+00    0.0000000000000000E+00
             0.0000000000000000E+00    0.0000000000000000E+00    0.0000000000000000E+00
             0.0000000000000000E+00    0.0000000000000000E+00    0.0000000000000000E+00
             0.0000000000000000E+00    0.0000000000000000E+00    0.0000000000000000E+00
             0.0000000000000000E+00    0.0000000000000000E+00    0.0000000000000000E+00
             0.0000000000000000E+00    0.0000000000000000E+00    0.0000000000000000E+00
             0.0000000000000000E+00    0.0000000000000000E+00    0.0000000000000000E+00
             0.0000000000000000E+00    0.0000000000000000E+00    0.0000000000000000E+00
             0.0000000000000000E+00    0.0000000000000000E+00    0.0000000000000000E+00
             0.0000000000000000E+00    0.0000000000000000E+00    0.0000000000000000E+00
             0.0000000000000000E+00    0.0000000000000000E+00    0.0000000000000000E+00
             0.0000000000000000E+00    0.0000000000000000E+00    0.0000000000000000E+00
             0.0000000000000000E+00    0.0000000000000000E+00    0.0000000000000000E+00
             0.0000000000000000E+00    0.0000000000000000E+00    0.0000000000000000E+00
             0.0000000000000000E+00    0.0000000000000000E+00    0.0000000000000000E+00
             0.0000000000000000E+00    0.0000000000000000E+00    0.0000000000000000E+00
             0.0000000000000000E+00    0.0000000000000000E+00    0.0000000000000000E+00
             0.0000000000000000E+00    0.0000000000000000E+00    0.0000000000000000E+00
             0.0000000000000000E+00    0.0000000000000000E+00    0.0000000000000000E+00
             0.0000000000000000E+00    0.0000000000000000E+00    0.0000000000000000E+00
             0.0000000000000000E+00    0.0000000000000000E+00    0.0000000000000000E+00
             0.0000000000000000E+00    0.0000000000000000E+00    0.0000000000000000E+00
             0.0000000000000000E+00    0.0000000000000000E+00    0.0000000000000000E+00
             0.0000000000000000E+00    0.0000000000000000E+00    0.0000000000000000E+00
             0.0000000000000000E+00    0.0000000000000000E+00    0.0000000000000000E+00
             0.0000000000000000E+00    0.0000000000000000E+00    0.0000000000000000E+00
             0.0000000000000000E+00    0.0000000000000000E+00    0.0000000000000000E+00
             0.0000000000000000E+00    0.0000000000000000E+00    0.0000000000000000E+00
             0.0000000000000000E+00    0.0000000000000000E+00    0.0000000000000000E+00
             0.0000000000000000E+00    0.0000000000000000E+00    0.0000000000000000E+00
             0.0000000000000000E+00    0.0000000000000000E+00    0.0000000000000000E+00
             0.0000000000000000E+00    0.0000000000000000E+00    0.0000000000000000E+00
             0.0000000000000000E+00    0.0000000000000000E+00    0.0000000000000000E+00
             0.0000000000000000E+00    0.0000000000000000E+00    0.0000000000000000E+00
             0.0000000000000000E+00    0.0000000000000000E+00    0.0000000000000000E+00
             0.0000000000000000E+00    0.0000000000000000E+00    0.0000000000000000E+00
             0.0000000000000000E+00    0.0000000000000000E+00    0.0000000000000000E+00
             0.0000000000000000E+00    0.0000000000000000E+00    0.0000000000000000E+00
             0.0000000000000000E+00    0.0000000000000000E+00    0.0000000000000000E+00
             0.0000000000000000E+00    0.0000000000000000E+00    0.0000000000000000E+00
             0.0000000000000000E+00    0.0000000000000000E+00    0.0000000000000000E+00
             0.0000000000000000E+00    0.0000000000000000E+00    0.0000000000000000E+00
             0.0000000000000000E+00    0.0000000000000000E+00    0.0000000000000000E+00
             0.0000000000000000E+00    0.0000000000000000E+00    0.0000000000000000E+00
             0.0000000000000000E+00    0.0000000000000000E+00    0.0000000000000000E+00
             0.0000000000000000E+00    0.0000000000000000E+00    0.0000000000000000E+00
             0.0000000000000000E+00    0.0000000000000000E+00    0.0000000000000000E+00
             0.0000000000000000E+00    0.0000000000000000E+00    0.0000000000000000E+00
             0.0000000000000000E+00    0.0000000000000000E+00    0.0000000000000000E+00
             0.0000000000000000E+00    0.0000000000000000E+00    0.0000000000000000E+00
             0.0000000000000000E+00    0.0000000000000000E+00    0.0000000000000000E+00
             0.0000000000000000E+00    0.0000000000000000E+00    0.0000000000000000E+00
             0.0000000000000000E+00    0.0000000000000000E+00    0.0000000000000000E+00
             0.0000000000000000E+00    0.0000000000000000E+00    0.0000000000000000E+00
             0.0000000000000000E+00    0.0000000000000000E+00    0.0000000000000000E+00
             0.0000000000000000E+00    0.0000000000000000E+00    0.0000000000000000E+00
             0.0000000000000000E+00    0.0000000000000000E+00    0.0000000000000000E+00
             0.0000000000000000E+00    0.0000000000000000E+00    0.0000000000000000E+00
             0.0000000000000000E+00    0.0000000000000000E+00    0.0000000000000000E+00
             0.0000000000000000E+00    0.0000000000000000E+00    0.0000000000000000E+00
             0.0000000000000000E+00    0.0000000000000000E+00    0.0000000000000000E+00
             0.0000000000000000E+00    0.0000000000000000E+00    0.0000000000000000E+00
             0.0000000000000000E+00    0.0000000000000000E+00    0.0000000000000000E+00
             0.0000000000000000E+00    0.0000000000000000E+00    0.0000000000000000E+00
             0.0000000000000000E+00    0.0000000000000000E+00    0.0000000000000000E+00
             0.0000000000000000E+00    0.0000000000000000E+00    0.0000000000000000E+00
             0.0000000000000000E+00    0.0000000000000000E+00    0.0000000000000000E+00
             0.0000000000000000E+00    0.0000000000000000E+00    0.0000000000000000E+00
             0.0000000000000000E+00    0.0000000000000000E+00    0.0000000000000000E+00
             0.0000000000000000E+00    0.0000000000000000E+00    0.0000000000000000E+00
             0.0000000000000000E+00    0.0000000000000000E+00    0.0000000000000000E+00
             0.0000000000000000E+00    0.0000000000000000E+00    0.0000000000000000E+00
             0.0000000000000000E+00    0.0000000000000000E+00    0.0000000000000000E+00