 # Version information for this restart file 
 # current date 2024-01-13 08:56:52.174
 # current working dir /gpfs/home/cahart/transport/melamine/au_from-h2/ci-neb/ts1/dft_leads-sz_tip-dzvp_surf-dzvp_kpoints-2-4-20_replicas-5
 # Program compiled at                              Thu 21 Sep 19:20:17 BST 2023
 # Program compiled on                                           hx1-c12-login-1
 # Program compiled for                                                    local
 # Source code revision number                                       git:5518aa6
 &GLOBAL
   EXTENDED_FFT_LENGTHS  T
   PRINT_LEVEL  MEDIUM
   PROJECT_NAME 2_dft_wfn-r-0
   OUTPUT_FILE_NAME 2_dft_wfn-r-0.out
   RUN_TYPE  BAND
 &END GLOBAL
 &MOTION
   &BAND
     NPROC_REP  64
     BAND_TYPE  CI-NEB
     NUMBER_OF_REPLICA  5
     K_SPRING     5.0000000000000003E-02
     &CI_NEB
       NSTEPS_IT  5
     &END CI_NEB
     &OPTIMIZE_BAND
       OPT_TYPE  DIIS
       &DIIS
         MAX_STEPS  1000
       &END DIIS
     &END OPTIMIZE_BAND
     &REPLICA
       &COORD
             0.0000000000000000E+00    0.0000000000000000E+00    0.0000000000000000E+00
             0.0000000000000000E+00    2.9550000000000378E+00    0.0000000000000000E+00
             0.0000000000000000E+00    5.9110000000000760E+00    0.0000000000000000E+00
             2.9560000000000421E+00    0.0000000000000000E+00    0.0000000000000000E+00
             2.9560000000000421E+00    2.9550000000000378E+00    0.0000000000000000E+00
             2.9560000000000421E+00    5.9110000000000760E+00    0.0000000000000000E+00
             5.9120000000000843E+00    0.0000000000000000E+00    0.0000000000000000E+00
             5.9120000000000843E+00    2.9550000000000378E+00    0.0000000000000000E+00
             5.9120000000000843E+00    5.9110000000000760E+00    0.0000000000000000E+00
             8.6700000000001278E+00    0.0000000000000000E+00    0.0000000000000000E+00
             8.6700000000001278E+00    2.9550000000000378E+00    0.0000000000000000E+00
             8.6700000000001278E+00    5.9110000000000760E+00    0.0000000000000000E+00
             1.1626000000000163E+01    0.0000000000000000E+00    0.0000000000000000E+00
             1.1626000000000163E+01    2.9550000000000378E+00    0.0000000000000000E+00
             1.1626000000000163E+01    5.9110000000000760E+00    0.0000000000000000E+00
             1.4780000000000211E+00    1.4780000000000211E+00    2.0900000000000287E+00
             1.4780000000000211E+00    4.4330000000000602E+00    2.0900000000000287E+00
             1.4780000000000211E+00    7.3890000000001042E+00    2.0900000000000287E+00
             4.4340000000000597E+00    1.4780000000000211E+00    2.0900000000000287E+00
             4.4340000000000597E+00    4.4330000000000602E+00    2.0900000000000287E+00
             4.4340000000000597E+00    7.3890000000001042E+00    2.0900000000000287E+00
             7.1920000000000970E+00    1.4780000000000211E+00    2.0900000000000287E+00
             7.1920000000000970E+00    4.4330000000000602E+00    2.0900000000000287E+00
             7.1920000000000970E+00    7.3890000000001042E+00    2.0900000000000287E+00
             1.0148000000000136E+01    1.4780000000000211E+00    2.0900000000000287E+00
             1.0148000000000136E+01    4.4330000000000602E+00    2.0900000000000287E+00
             1.0148000000000136E+01    7.3890000000001042E+00    2.0900000000000287E+00
             1.3104000000000177E+01    1.4780000000000211E+00    2.0900000000000287E+00
             1.3104000000000177E+01    4.4330000000000602E+00    2.0900000000000287E+00
             1.3104000000000177E+01    7.3890000000001042E+00    2.0900000000000287E+00
             0.0000000000000000E+00    0.0000000000000000E+00    4.1800000000000574E+00
             0.0000000000000000E+00    2.9550000000000378E+00    4.1800000000000574E+00
             0.0000000000000000E+00    5.9110000000000760E+00    4.1800000000000574E+00
             2.9560000000000421E+00    0.0000000000000000E+00    4.1800000000000574E+00
             2.9560000000000421E+00    2.9550000000000378E+00    4.1800000000000574E+00
             2.9560000000000421E+00    5.9110000000000760E+00    4.1800000000000574E+00
             5.9120000000000843E+00    0.0000000000000000E+00    4.1800000000000574E+00
             5.9120000000000843E+00    2.9550000000000378E+00    4.1800000000000574E+00
             5.9120000000000843E+00    5.9110000000000760E+00    4.1800000000000574E+00
             8.6700000000001278E+00    0.0000000000000000E+00    4.1800000000000574E+00
             8.6700000000001278E+00    2.9550000000000378E+00    4.1800000000000574E+00
             8.6700000000001278E+00    5.9110000000000760E+00    4.1800000000000574E+00
             1.1626000000000163E+01    0.0000000000000000E+00    4.1800000000000574E+00
             1.1626000000000163E+01    2.9550000000000378E+00    4.1800000000000574E+00
             1.1626000000000163E+01    5.9110000000000760E+00    4.1800000000000574E+00
             1.4780000000000211E+00    1.4780000000000211E+00    6.2700000000000866E+00
             1.4780000000000211E+00    4.4330000000000602E+00    6.2700000000000866E+00
             1.4780000000000211E+00    7.3890000000001042E+00    6.2700000000000866E+00
             4.4340000000000597E+00    1.4780000000000211E+00    6.2700000000000866E+00
             4.4340000000000597E+00    4.4330000000000602E+00    6.2700000000000866E+00
             4.4340000000000597E+00    7.3890000000001042E+00    6.2700000000000866E+00
             7.1920000000000970E+00    1.4780000000000211E+00    6.2700000000000866E+00
             7.1920000000000970E+00    4.4330000000000602E+00    6.2700000000000866E+00
             7.1920000000000970E+00    7.3890000000001042E+00    6.2700000000000866E+00
             1.0148000000000136E+01    1.4780000000000211E+00    6.2700000000000866E+00
             1.0148000000000136E+01    4.4330000000000602E+00    6.2700000000000866E+00
             1.0148000000000136E+01    7.3890000000001042E+00    6.2700000000000866E+00
             1.3104000000000177E+01    1.4780000000000211E+00    6.2700000000000866E+00
             1.3104000000000177E+01    4.4330000000000602E+00    6.2700000000000866E+00
             1.3104000000000177E+01    7.3890000000001042E+00    6.2700000000000866E+00
             0.0000000000000000E+00    0.0000000000000000E+00    8.3600000000001149E+00
             0.0000000000000000E+00    2.9550000000000378E+00    8.3600000000001149E+00
             0.0000000000000000E+00    5.9110000000000760E+00    8.3600000000001149E+00
             2.9560000000000421E+00    0.0000000000000000E+00    8.3600000000001149E+00
             2.9560000000000421E+00    2.9550000000000378E+00    8.3600000000001149E+00
             2.9560000000000421E+00    5.9110000000000760E+00    8.3600000000001149E+00
             5.9120000000000843E+00    0.0000000000000000E+00    8.3600000000001149E+00
             5.9120000000000843E+00    2.9550000000000378E+00    8.3600000000001149E+00
             5.9120000000000843E+00    5.9110000000000760E+00    8.3600000000001149E+00
             8.6700000000001278E+00    0.0000000000000000E+00    8.3600000000001149E+00
             8.6700000000001278E+00    2.9550000000000378E+00    8.3600000000001149E+00
             8.6700000000001278E+00    5.9110000000000760E+00    8.3600000000001149E+00
             1.1626000000000163E+01    0.0000000000000000E+00    8.3600000000001149E+00
             1.1626000000000163E+01    2.9550000000000378E+00    8.3600000000001149E+00
             1.1626000000000163E+01    5.9110000000000760E+00    8.3600000000001149E+00
             1.4780000000000211E+00    1.4780000000000211E+00    1.0450000000000145E+01
             1.4780000000000211E+00    4.4330000000000602E+00    1.0450000000000145E+01
             1.4780000000000211E+00    7.3890000000001042E+00    1.0450000000000145E+01
             4.4340000000000597E+00    1.4780000000000211E+00    1.0450000000000145E+01
             4.4340000000000597E+00    4.4330000000000602E+00    1.0450000000000145E+01
             4.4340000000000597E+00    7.3890000000001042E+00    1.0450000000000145E+01
             7.1920000000000970E+00    1.4780000000000211E+00    1.0450000000000145E+01
             7.1920000000000970E+00    4.4330000000000602E+00    1.0450000000000145E+01
             7.1920000000000970E+00    7.3890000000001042E+00    1.0450000000000145E+01
             1.0148000000000136E+01    1.4780000000000211E+00    1.0450000000000145E+01
             1.0148000000000136E+01    4.4330000000000602E+00    1.0450000000000145E+01
             1.0148000000000136E+01    7.3890000000001042E+00    1.0450000000000145E+01
             1.3104000000000177E+01    1.4780000000000211E+00    1.0450000000000145E+01
             1.3104000000000177E+01    4.4330000000000602E+00    1.0450000000000145E+01
             1.3104000000000177E+01    7.3890000000001042E+00    1.0450000000000145E+01
             4.8554000000000750E+00    5.9119000000000801E+00    1.2031800000000173E+01
             9.5280000000001337E+00    5.9137000000000839E+00    1.2034000000000177E+01
             7.1920000000000970E+00    5.9340000000000899E+00    1.2040000000000170E+01
             4.0750319168000546E+00    5.9049488170000846E+00    1.2696844061800169E+01
             1.0293988349500136E+01    5.9062142779000766E+00    1.2716532694500195E+01
             6.0099999686000851E+00    5.9120523853000879E+00    1.2765819797400180E+01
             8.3750478948001152E+00    5.9129627335000778E+00    1.2760746495900172E+01
             8.4047327065001181E+00    5.8893877816000781E+00    1.4094060897200173E+01
             5.9788500869000893E+00    5.8882515165000786E+00    1.4094239568500203E+01
             7.1943473363000985E+00    5.8799164377000785E+00    1.4701118490300203E+01
             7.1912293097000974E+00    5.8521058221000875E+00    1.6050622658200236E+01
             6.3086348447000971E+00    5.8615539361000852E+00    1.6548439365000231E+01
             8.0709262665001180E+00    5.8621389354000790E+00    1.6553588809700233E+01
             7.3120000000001042E+00    5.9340000000000899E+00    2.1043000000000280E+01
             5.8130000000000814E+00    7.4340000000001094E+00    2.2992000000000345E+01
             8.8130000000001267E+00    4.4340000000000597E+00    2.2992000000000345E+01
             5.8130000000000814E+00    4.4330000000000602E+00    2.2992000000000345E+01
             8.8130000000001267E+00    7.4340000000001094E+00    2.2992000000000345E+01
             1.4780000000000211E+00    1.4780000000000211E+00    2.5082000000000296E+01
             1.4780000000000211E+00    4.4330000000000602E+00    2.5082000000000296E+01
             1.4780000000000211E+00    7.3890000000001042E+00    2.5082000000000296E+01
             4.4340000000000597E+00    1.4780000000000211E+00    2.5082000000000296E+01
             4.4340000000000597E+00    4.4330000000000602E+00    2.5082000000000296E+01
             4.4340000000000597E+00    7.3890000000001042E+00    2.5082000000000296E+01
             7.1920000000000970E+00    1.4780000000000211E+00    2.5082000000000296E+01
             7.1920000000000970E+00    4.4330000000000602E+00    2.5082000000000296E+01
             7.1920000000000970E+00    7.3890000000001042E+00    2.5082000000000296E+01
             1.0148000000000136E+01    1.4780000000000211E+00    2.5082000000000296E+01
             1.0148000000000136E+01    4.4330000000000602E+00    2.5082000000000296E+01
             1.0148000000000136E+01    7.3890000000001042E+00    2.5082000000000296E+01
             1.3104000000000177E+01    1.4780000000000211E+00    2.5082000000000296E+01
             1.3104000000000177E+01    4.4330000000000602E+00    2.5082000000000296E+01
             1.3104000000000177E+01    7.3890000000001042E+00    2.5082000000000296E+01
             0.0000000000000000E+00    0.0000000000000000E+00    2.7172000000000395E+01
             0.0000000000000000E+00    2.9550000000000378E+00    2.7172000000000395E+01
             0.0000000000000000E+00    5.9110000000000760E+00    2.7172000000000395E+01
             2.9560000000000421E+00    0.0000000000000000E+00    2.7172000000000395E+01
             2.9560000000000421E+00    2.9550000000000378E+00    2.7172000000000395E+01
             2.9560000000000421E+00    5.9110000000000760E+00    2.7172000000000395E+01
             5.9120000000000843E+00    0.0000000000000000E+00    2.7172000000000395E+01
             5.9120000000000843E+00    2.9550000000000378E+00    2.7172000000000395E+01
             5.9120000000000843E+00    5.9110000000000760E+00    2.7172000000000395E+01
             8.6700000000001278E+00    0.0000000000000000E+00    2.7172000000000395E+01
             8.6700000000001278E+00    2.9550000000000378E+00    2.7172000000000395E+01
             8.6700000000001278E+00    5.9110000000000760E+00    2.7172000000000395E+01
             1.1626000000000163E+01    0.0000000000000000E+00    2.7172000000000395E+01
             1.1626000000000163E+01    2.9550000000000378E+00    2.7172000000000395E+01
             1.1626000000000163E+01    5.9110000000000760E+00    2.7172000000000395E+01
             1.4780000000000211E+00    1.4780000000000211E+00    2.9262000000000381E+01
             1.4780000000000211E+00    4.4330000000000602E+00    2.9262000000000381E+01
             1.4780000000000211E+00    7.3890000000001042E+00    2.9262000000000381E+01
             4.4340000000000597E+00    1.4780000000000211E+00    2.9262000000000381E+01
             4.4340000000000597E+00    4.4330000000000602E+00    2.9262000000000381E+01
             4.4340000000000597E+00    7.3890000000001042E+00    2.9262000000000381E+01
             7.1920000000000970E+00    1.4780000000000211E+00    2.9262000000000381E+01
             7.1920000000000970E+00    4.4330000000000602E+00    2.9262000000000381E+01
             7.1920000000000970E+00    7.3890000000001042E+00    2.9262000000000381E+01
             1.0148000000000136E+01    1.4780000000000211E+00    2.9262000000000381E+01
             1.0148000000000136E+01    4.4330000000000602E+00    2.9262000000000381E+01
             1.0148000000000136E+01    7.3890000000001042E+00    2.9262000000000381E+01
             1.3104000000000177E+01    1.4780000000000211E+00    2.9262000000000381E+01
             1.3104000000000177E+01    4.4330000000000602E+00    2.9262000000000381E+01
             1.3104000000000177E+01    7.3890000000001042E+00    2.9262000000000381E+01
             0.0000000000000000E+00    0.0000000000000000E+00    3.1352000000000455E+01
             0.0000000000000000E+00    2.9550000000000378E+00    3.1352000000000455E+01
             0.0000000000000000E+00    5.9110000000000760E+00    3.1352000000000455E+01
             2.9560000000000421E+00    0.0000000000000000E+00    3.1352000000000455E+01
             2.9560000000000421E+00    2.9550000000000378E+00    3.1352000000000455E+01
             2.9560000000000421E+00    5.9110000000000760E+00    3.1352000000000455E+01
             5.9120000000000843E+00    0.0000000000000000E+00    3.1352000000000455E+01
             5.9120000000000843E+00    2.9550000000000378E+00    3.1352000000000455E+01
             5.9120000000000843E+00    5.9110000000000760E+00    3.1352000000000455E+01
             8.6700000000001278E+00    0.0000000000000000E+00    3.1352000000000455E+01
             8.6700000000001278E+00    2.9550000000000378E+00    3.1352000000000455E+01
             8.6700000000001278E+00    5.9110000000000760E+00    3.1352000000000455E+01
             1.1626000000000163E+01    0.0000000000000000E+00    3.1352000000000455E+01
             1.1626000000000163E+01    2.9550000000000378E+00    3.1352000000000455E+01
             1.1626000000000163E+01    5.9110000000000760E+00    3.1352000000000455E+01
             1.4780000000000211E+00    1.4780000000000211E+00    3.3442000000000455E+01
             1.4780000000000211E+00    4.4330000000000602E+00    3.3442000000000455E+01
             1.4780000000000211E+00    7.3890000000001042E+00    3.3442000000000455E+01
             4.4340000000000597E+00    1.4780000000000211E+00    3.3442000000000455E+01
             4.4340000000000597E+00    4.4330000000000602E+00    3.3442000000000455E+01
             4.4340000000000597E+00    7.3890000000001042E+00    3.3442000000000455E+01
             7.1920000000000970E+00    1.4780000000000211E+00    3.3442000000000455E+01
             7.1920000000000970E+00    4.4330000000000602E+00    3.3442000000000455E+01
             7.1920000000000970E+00    7.3890000000001042E+00    3.3442000000000455E+01
             1.0148000000000136E+01    1.4780000000000211E+00    3.3442000000000455E+01
             1.0148000000000136E+01    4.4330000000000602E+00    3.3442000000000455E+01
             1.0148000000000136E+01    7.3890000000001042E+00    3.3442000000000455E+01
             1.3104000000000177E+01    1.4780000000000211E+00    3.3442000000000455E+01
             1.3104000000000177E+01    4.4330000000000602E+00    3.3442000000000455E+01
             1.3104000000000177E+01    7.3890000000001042E+00    3.3442000000000455E+01
       &END COORD
       &VELOCITY
             0.0000000000000000E+00    0.0000000000000000E+00    0.0000000000000000E+00
             0.0000000000000000E+00    0.0000000000000000E+00    0.0000000000000000E+00
             0.0000000000000000E+00    0.0000000000000000E+00    0.0000000000000000E+00
             0.0000000000000000E+00    0.0000000000000000E+00    0.0000000000000000E+00
             0.0000000000000000E+00    0.0000000000000000E+00    0.0000000000000000E+00
             0.0000000000000000E+00    0.0000000000000000E+00    0.0000000000000000E+00
             0.0000000000000000E+00    0.0000000000000000E+00    0.0000000000000000E+00
             0.0000000000000000E+00    0.0000000000000000E+00    0.0000000000000000E+00
             0.0000000000000000E+00    0.0000000000000000E+00    0.0000000000000000E+00
             0.0000000000000000E+00    0.0000000000000000E+00    0.0000000000000000E+00
             0.0000000000000000E+00    0.0000000000000000E+00    0.0000000000000000E+00
             0.0000000000000000E+00    0.0000000000000000E+00    0.0000000000000000E+00
             0.0000000000000000E+00    0.0000000000000000E+00    0.0000000000000000E+00
             0.0000000000000000E+00    0.0000000000000000E+00    0.0000000000000000E+00
             0.0000000000000000E+00    0.0000000000000000E+00    0.0000000000000000E+00
             0.0000000000000000E+00    0.0000000000000000E+00    0.0000000000000000E+00
             0.0000000000000000E+00    0.0000000000000000E+00    0.0000000000000000E+00
             0.0000000000000000E+00    0.0000000000000000E+00    0.0000000000000000E+00
             0.0000000000000000E+00    0.0000000000000000E+00    0.0000000000000000E+00
             0.0000000000000000E+00    0.0000000000000000E+00    0.0000000000000000E+00
             0.0000000000000000E+00    0.0000000000000000E+00    0.0000000000000000E+00
             0.0000000000000000E+00    0.0000000000000000E+00    0.0000000000000000E+00
             0.0000000000000000E+00    0.0000000000000000E+00    0.0000000000000000E+00
             0.0000000000000000E+00    0.0000000000000000E+00    0.0000000000000000E+00
             0.0000000000000000E+00    0.0000000000000000E+00    0.0000000000000000E+00
             0.0000000000000000E+00    0.0000000000000000E+00    0.0000000000000000E+00
             0.0000000000000000E+00    0.0000000000000000E+00    0.0000000000000000E+00
             0.0000000000000000E+00    0.0000000000000000E+00    0.0000000000000000E+00
             0.0000000000000000E+00    0.0000000000000000E+00    0.0000000000000000E+00
             0.0000000000000000E+00    0.0000000000000000E+00    0.0000000000000000E+00
             0.0000000000000000E+00    0.0000000000000000E+00    0.0000000000000000E+00
             0.0000000000000000E+00    0.0000000000000000E+00    0.0000000000000000E+00
             0.0000000000000000E+00    0.0000000000000000E+00    0.0000000000000000E+00
             0.0000000000000000E+00    0.0000000000000000E+00    0.0000000000000000E+00
             0.0000000000000000E+00    0.0000000000000000E+00    0.0000000000000000E+00
             0.0000000000000000E+00    0.0000000000000000E+00    0.0000000000000000E+00
             0.0000000000000000E+00    0.0000000000000000E+00    0.0000000000000000E+00
             0.0000000000000000E+00    0.0000000000000000E+00    0.0000000000000000E+00
             0.0000000000000000E+00    0.0000000000000000E+00    0.0000000000000000E+00
             0.0000000000000000E+00    0.0000000000000000E+00    0.0000000000000000E+00
             0.0000000000000000E+00    0.0000000000000000E+00    0.0000000000000000E+00
             0.0000000000000000E+00    0.0000000000000000E+00    0.0000000000000000E+00
             0.0000000000000000E+00    0.0000000000000000E+00    0.0000000000000000E+00
             0.0000000000000000E+00    0.0000000000000000E+00    0.0000000000000000E+00
             0.0000000000000000E+00    0.0000000000000000E+00    0.0000000000000000E+00
             0.0000000000000000E+00    0.0000000000000000E+00    0.0000000000000000E+00
             0.0000000000000000E+00    0.0000000000000000E+00    0.0000000000000000E+00
             0.0000000000000000E+00    0.0000000000000000E+00    0.0000000000000000E+00
             0.0000000000000000E+00    0.0000000000000000E+00    0.0000000000000000E+00
             0.0000000000000000E+00    0.0000000000000000E+00    0.0000000000000000E+00
             0.0000000000000000E+00    0.0000000000000000E+00    0.0000000000000000E+00
             0.0000000000000000E+00    0.0000000000000000E+00    0.0000000000000000E+00
             0.0000000000000000E+00    0.0000000000000000E+00    0.0000000000000000E+00
             0.0000000000000000E+00    0.0000000000000000E+00    0.0000000000000000E+00
             0.0000000000000000E+00    0.0000000000000000E+00    0.0000000000000000E+00
             0.0000000000000000E+00    0.0000000000000000E+00    0.0000000000000000E+00
             0.0000000000000000E+00    0.0000000000000000E+00    0.0000000000000000E+00
             0.0000000000000000E+00    0.0000000000000000E+00    0.0000000000000000E+00
             0.0000000000000000E+00    0.0000000000000000E+00    0.0000000000000000E+00
             0.0000000000000000E+00    0.0000000000000000E+00    0.0000000000000000E+00
             0.0000000000000000E+00    0.0000000000000000E+00    0.0000000000000000E+00
             0.0000000000000000E+00    0.0000000000000000E+00    0.0000000000000000E+00
             0.0000000000000000E+00    0.0000000000000000E+00    0.0000000000000000E+00
             0.0000000000000000E+00    0.0000000000000000E+00    0.0000000000000000E+00
             0.0000000000000000E+00    0.0000000000000000E+00    0.0000000000000000E+00
             0.0000000000000000E+00    0.0000000000000000E+00    0.0000000000000000E+00
             0.0000000000000000E+00    0.0000000000000000E+00    0.0000000000000000E+00
             0.0000000000000000E+00    0.0000000000000000E+00    0.0000000000000000E+00
             0.0000000000000000E+00    0.0000000000000000E+00    0.0000000000000000E+00
             0.0000000000000000E+00    0.0000000000000000E+00    0.0000000000000000E+00
             0.0000000000000000E+00    0.0000000000000000E+00    0.0000000000000000E+00
             0.0000000000000000E+00    0.0000000000000000E+00    0.0000000000000000E+00
             0.0000000000000000E+00    0.0000000000000000E+00    0.0000000000000000E+00
             0.0000000000000000E+00    0.0000000000000000E+00    0.0000000000000000E+00
             0.0000000000000000E+00    0.0000000000000000E+00    0.0000000000000000E+00
             0.0000000000000000E+00    0.0000000000000000E+00    0.0000000000000000E+00
             0.0000000000000000E+00    0.0000000000000000E+00    0.0000000000000000E+00
             0.0000000000000000E+00    0.0000000000000000E+00    0.0000000000000000E+00
             0.0000000000000000E+00    0.0000000000000000E+00    0.0000000000000000E+00
             0.0000000000000000E+00    0.0000000000000000E+00    0.0000000000000000E+00
             0.0000000000000000E+00    0.0000000000000000E+00    0.0000000000000000E+00
             0.0000000000000000E+00    0.0000000000000000E+00    0.0000000000000000E+00
             0.0000000000000000E+00    0.0000000000000000E+00    0.0000000000000000E+00
             0.0000000000000000E+00    0.0000000000000000E+00    0.0000000000000000E+00
             0.0000000000000000E+00    0.0000000000000000E+00    0.0000000000000000E+00
             0.0000000000000000E+00    0.0000000000000000E+00    0.0000000000000000E+00
             0.0000000000000000E+00    0.0000000000000000E+00    0.0000000000000000E+00
             0.0000000000000000E+00    0.0000000000000000E+00    0.0000000000000000E+00
             0.0000000000000000E+00    0.0000000000000000E+00    0.0000000000000000E+00
             0.0000000000000000E+00    0.0000000000000000E+00    0.0000000000000000E+00
             0.0000000000000000E+00    0.0000000000000000E+00    0.0000000000000000E+00
             0.0000000000000000E+00    0.0000000000000000E+00    0.0000000000000000E+00
             0.0000000000000000E+00    0.0000000000000000E+00    0.0000000000000000E+00
             0.0000000000000000E+00    0.0000000000000000E+00    0.0000000000000000E+00
             0.0000000000000000E+00    0.0000000000000000E+00    0.0000000000000000E+00
             0.0000000000000000E+00    0.0000000000000000E+00    0.0000000000000000E+00
             0.0000000000000000E+00    0.0000000000000000E+00    0.0000000000000000E+00
             0.0000000000000000E+00    0.0000000000000000E+00    0.0000000000000000E+00
             0.0000000000000000E+00    0.0000000000000000E+00    0.0000000000000000E+00
             0.0000000000000000E+00    0.0000000000000000E+00    0.0000000000000000E+00
             0.0000000000000000E+00    0.0000000000000000E+00    0.0000000000000000E+00
             0.0000000000000000E+00    0.0000000000000000E+00    0.0000000000000000E+00
             0.0000000000000000E+00    0.0000000000000000E+00    0.0000000000000000E+00
             0.0000000000000000E+00    0.0000000000000000E+00    0.0000000000000000E+00
             0.0000000000000000E+00    0.0000000000000000E+00    0.0000000000000000E+00
             0.0000000000000000E+00    0.0000000000000000E+00    0.0000000000000000E+00
             0.0000000000000000E+00    0.0000000000000000E+00    0.0000000000000000E+00
             0.0000000000000000E+00    0.0000000000000000E+00    0.0000000000000000E+00
             0.0000000000000000E+00    0.0000000000000000E+00    0.0000000000000000E+00
             0.0000000000000000E+00    0.0000000000000000E+00    0.0000000000000000E+00
             0.0000000000000000E+00    0.0000000000000000E+00    0.0000000000000000E+00
             0.0000000000000000E+00    0.0000000000000000E+00    0.0000000000000000E+00
             0.0000000000000000E+00    0.0000000000000000E+00    0.0000000000000000E+00
             0.0000000000000000E+00    0.0000000000000000E+00    0.0000000000000000E+00
             0.0000000000000000E+00    0.0000000000000000E+00    0.0000000000000000E+00
             0.0000000000000000E+00    0.0000000000000000E+00    0.0000000000000000E+00
             0.0000000000000000E+00    0.0000000000000000E+00    0.0000000000000000E+00
             0.0000000000000000E+00    0.0000000000000000E+00    0.0000000000000000E+00
             0.0000000000000000E+00    0.0000000000000000E+00    0.0000000000000000E+00
             0.0000000000000000E+00    0.0000000000000000E+00    0.0000000000000000E+00
             0.0000000000000000E+00    0.0000000000000000E+00    0.0000000000000000E+00
             0.0000000000000000E+00    0.0000000000000000E+00    0.0000000000000000E+00
             0.0000000000000000E+00    0.0000000000000000E+00    0.0000000000000000E+00
             0.0000000000000000E+00    0.0000000000000000E+00    0.0000000000000000E+00
             0.0000000000000000E+00    0.0000000000000000E+00    0.0000000000000000E+00
             0.0000000000000000E+00    0.0000000000000000E+00    0.0000000000000000E+00
             0.0000000000000000E+00    0.0000000000000000E+00    0.0000000000000000E+00
             0.0000000000000000E+00    0.0000000000000000E+00    0.0000000000000000E+00
             0.0000000000000000E+00    0.0000000000000000E+00    0.0000000000000000E+00
             0.0000000000000000E+00    0.0000000000000000E+00    0.0000000000000000E+00
             0.0000000000000000E+00    0.0000000000000000E+00    0.0000000000000000E+00
             0.0000000000000000E+00    0.0000000000000000E+00    0.0000000000000000E+00
             0.0000000000000000E+00    0.0000000000000000E+00    0.0000000000000000E+00
             0.0000000000000000E+00    0.0000000000000000E+00    0.0000000000000000E+00
             0.0000000000000000E+00    0.0000000000000000E+00    0.0000000000000000E+00
             0.0000000000000000E+00    0.0000000000000000E+00    0.0000000000000000E+00
             0.0000000000000000E+00    0.0000000000000000E+00    0.0000000000000000E+00
             0.0000000000000000E+00    0.0000000000000000E+00    0.0000000000000000E+00
             0.0000000000000000E+00    0.0000000000000000E+00    0.0000000000000000E+00
             0.0000000000000000E+00    0.0000000000000000E+00    0.0000000000000000E+00
             0.0000000000000000E+00    0.0000000000000000E+00    0.0000000000000000E+00
             0.0000000000000000E+00    0.0000000000000000E+00    0.0000000000000000E+00
             0.0000000000000000E+00    0.0000000000000000E+00    0.0000000000000000E+00
             0.0000000000000000E+00    0.0000000000000000E+00    0.0000000000000000E+00
             0.0000000000000000E+00    0.0000000000000000E+00    0.0000000000000000E+00