 # Version information for this restart file 
 # current date 2024-01-13 00:13:19.425
 # current working dir /gpfs/home/cahart/transport/melamine/au_from-h2/ci-neb/ts1/dft_leads-sz_tip-dzvp_surf-dzvp_kpoints-2-4-20_replicas-5
 # Program compiled at                              Thu 21 Sep 19:20:17 BST 2023
 # Program compiled on                                           hx1-c12-login-1
 # Program compiled for                                                    local
 # Source code revision number                                       git:5518aa6
 &GLOBAL
   EXTENDED_FFT_LENGTHS  T
   PRINT_LEVEL  MEDIUM
   PROJECT_NAME 2_dft_wfn-r-0
   OUTPUT_FILE_NAME 2_dft_wfn-r-0.out
   RUN_TYPE  BAND
 &END GLOBAL
 &MOTION
   &BAND
     NPROC_REP  64
     BAND_TYPE  CI-NEB
     NUMBER_OF_REPLICA  5
     K_SPRING     5.0000000000000003E-02
     &CI_NEB
       NSTEPS_IT  5
     &END CI_NEB
     &OPTIMIZE_BAND
       OPT_TYPE  DIIS
       &DIIS
         MAX_STEPS  1000
       &END DIIS
     &END OPTIMIZE_BAND
     &REPLICA
       &COORD
             0.0000000000000000E+00    0.0000000000000000E+00    0.0000000000000000E+00
             0.0000000000000000E+00    2.9550000000000312E+00    0.0000000000000000E+00
             0.0000000000000000E+00    5.9110000000000600E+00    0.0000000000000000E+00
             2.9560000000000306E+00    0.0000000000000000E+00    0.0000000000000000E+00
             2.9560000000000306E+00    2.9550000000000312E+00    0.0000000000000000E+00
             2.9560000000000306E+00    5.9110000000000600E+00    0.0000000000000000E+00
             5.9120000000000612E+00    0.0000000000000000E+00    0.0000000000000000E+00
             5.9120000000000612E+00    2.9550000000000312E+00    0.0000000000000000E+00
             5.9120000000000612E+00    5.9110000000000600E+00    0.0000000000000000E+00
             8.6700000000000994E+00    0.0000000000000000E+00    0.0000000000000000E+00
             8.6700000000000994E+00    2.9550000000000312E+00    0.0000000000000000E+00
             8.6700000000000994E+00    5.9110000000000600E+00    0.0000000000000000E+00
             1.1626000000000129E+01    0.0000000000000000E+00    0.0000000000000000E+00
             1.1626000000000129E+01    2.9550000000000312E+00    0.0000000000000000E+00
             1.1626000000000129E+01    5.9110000000000600E+00    0.0000000000000000E+00
             1.4780000000000153E+00    1.4780000000000153E+00    2.0900000000000225E+00
             1.4780000000000153E+00    4.4330000000000505E+00    2.0900000000000225E+00
             1.4780000000000153E+00    7.3890000000000855E+00    2.0900000000000225E+00
             4.4340000000000472E+00    1.4780000000000153E+00    2.0900000000000225E+00
             4.4340000000000472E+00    4.4330000000000505E+00    2.0900000000000225E+00
             4.4340000000000472E+00    7.3890000000000855E+00    2.0900000000000225E+00
             7.1920000000000801E+00    1.4780000000000153E+00    2.0900000000000225E+00
             7.1920000000000801E+00    4.4330000000000505E+00    2.0900000000000225E+00
             7.1920000000000801E+00    7.3890000000000855E+00    2.0900000000000225E+00
             1.0148000000000110E+01    1.4780000000000153E+00    2.0900000000000225E+00
             1.0148000000000110E+01    4.4330000000000505E+00    2.0900000000000225E+00
             1.0148000000000110E+01    7.3890000000000855E+00    2.0900000000000225E+00
             1.3104000000000140E+01    1.4780000000000153E+00    2.0900000000000225E+00
             1.3104000000000140E+01    4.4330000000000505E+00    2.0900000000000225E+00
             1.3104000000000140E+01    7.3890000000000855E+00    2.0900000000000225E+00
             0.0000000000000000E+00    0.0000000000000000E+00    4.1800000000000450E+00
             0.0000000000000000E+00    2.9550000000000312E+00    4.1800000000000450E+00
             0.0000000000000000E+00    5.9110000000000600E+00    4.1800000000000450E+00
             2.9560000000000306E+00    0.0000000000000000E+00    4.1800000000000450E+00
             2.9560000000000306E+00    2.9550000000000312E+00    4.1800000000000450E+00
             2.9560000000000306E+00    5.9110000000000600E+00    4.1800000000000450E+00
             5.9120000000000612E+00    0.0000000000000000E+00    4.1800000000000450E+00
             5.9120000000000612E+00    2.9550000000000312E+00    4.1800000000000450E+00
             5.9120000000000612E+00    5.9110000000000600E+00    4.1800000000000450E+00
             8.6700000000000994E+00    0.0000000000000000E+00    4.1800000000000450E+00
             8.6700000000000994E+00    2.9550000000000312E+00    4.1800000000000450E+00
             8.6700000000000994E+00    5.9110000000000600E+00    4.1800000000000450E+00
             1.1626000000000129E+01    0.0000000000000000E+00    4.1800000000000450E+00
             1.1626000000000129E+01    2.9550000000000312E+00    4.1800000000000450E+00
             1.1626000000000129E+01    5.9110000000000600E+00    4.1800000000000450E+00
             1.4780000000000153E+00    1.4780000000000153E+00    6.2700000000000680E+00
             1.4780000000000153E+00    4.4330000000000505E+00    6.2700000000000680E+00
             1.4780000000000153E+00    7.3890000000000855E+00    6.2700000000000680E+00
             4.4340000000000472E+00    1.4780000000000153E+00    6.2700000000000680E+00
             4.4340000000000472E+00    4.4330000000000505E+00    6.2700000000000680E+00
             4.4340000000000472E+00    7.3890000000000855E+00    6.2700000000000680E+00
             7.1920000000000801E+00    1.4780000000000153E+00    6.2700000000000680E+00
             7.1920000000000801E+00    4.4330000000000505E+00    6.2700000000000680E+00
             7.1920000000000801E+00    7.3890000000000855E+00    6.2700000000000680E+00
             1.0148000000000110E+01    1.4780000000000153E+00    6.2700000000000680E+00
             1.0148000000000110E+01    4.4330000000000505E+00    6.2700000000000680E+00
             1.0148000000000110E+01    7.3890000000000855E+00    6.2700000000000680E+00
             1.3104000000000140E+01    1.4780000000000153E+00    6.2700000000000680E+00
             1.3104000000000140E+01    4.4330000000000505E+00    6.2700000000000680E+00
             1.3104000000000140E+01    7.3890000000000855E+00    6.2700000000000680E+00
             0.0000000000000000E+00    0.0000000000000000E+00    8.3600000000000900E+00
             0.0000000000000000E+00    2.9550000000000312E+00    8.3600000000000900E+00
             0.0000000000000000E+00    5.9110000000000600E+00    8.3600000000000900E+00
             2.9560000000000306E+00    0.0000000000000000E+00    8.3600000000000900E+00
             2.9560000000000306E+00    2.9550000000000312E+00    8.3600000000000900E+00
             2.9560000000000306E+00    5.9110000000000600E+00    8.3600000000000900E+00
             5.9120000000000612E+00    0.0000000000000000E+00    8.3600000000000900E+00
             5.9120000000000612E+00    2.9550000000000312E+00    8.3600000000000900E+00
             5.9120000000000612E+00    5.9110000000000600E+00    8.3600000000000900E+00
             8.6700000000000994E+00    0.0000000000000000E+00    8.3600000000000900E+00
             8.6700000000000994E+00    2.9550000000000312E+00    8.3600000000000900E+00
             8.6700000000000994E+00    5.9110000000000600E+00    8.3600000000000900E+00
             1.1626000000000129E+01    0.0000000000000000E+00    8.3600000000000900E+00
             1.1626000000000129E+01    2.9550000000000312E+00    8.3600000000000900E+00
             1.1626000000000129E+01    5.9110000000000600E+00    8.3600000000000900E+00
             1.4780000000000153E+00    1.4780000000000153E+00    1.0450000000000111E+01
             1.4780000000000153E+00    4.4330000000000505E+00    1.0450000000000111E+01
             1.4780000000000153E+00    7.3890000000000855E+00    1.0450000000000111E+01
             4.4340000000000472E+00    1.4780000000000153E+00    1.0450000000000111E+01
             4.4340000000000472E+00    4.4330000000000505E+00    1.0450000000000111E+01
             4.4340000000000472E+00    7.3890000000000855E+00    1.0450000000000111E+01
             7.1920000000000801E+00    1.4780000000000153E+00    1.0450000000000111E+01
             7.1920000000000801E+00    4.4330000000000505E+00    1.0450000000000111E+01
             7.1920000000000801E+00    7.3890000000000855E+00    1.0450000000000111E+01
             1.0148000000000110E+01    1.4780000000000153E+00    1.0450000000000111E+01
             1.0148000000000110E+01    4.4330000000000505E+00    1.0450000000000111E+01
             1.0148000000000110E+01    7.3890000000000855E+00    1.0450000000000111E+01
             1.3104000000000140E+01    1.4780000000000153E+00    1.0450000000000111E+01
             1.3104000000000140E+01    4.4330000000000505E+00    1.0450000000000111E+01
             1.3104000000000140E+01    7.3890000000000855E+00    1.0450000000000111E+01
             4.8554000000000599E+00    5.9119000000000668E+00    1.2031800000000132E+01
             9.5280000000001088E+00    5.9137000000000617E+00    1.2034000000000143E+01
             7.1920000000000801E+00    5.9340000000000668E+00    1.2040000000000129E+01
             4.0750319168000448E+00    5.9049488170000650E+00    1.2696844061800132E+01
             1.0293988349500106E+01    5.9062142779000615E+00    1.2716532694500152E+01
             6.0099999686000727E+00    5.9120523853000675E+00    1.2765819797400143E+01
             8.3750478948000939E+00    5.9129627335000636E+00    1.2760746495900140E+01
             8.4047327065000967E+00    5.8893877816000648E+00    1.4094060897200144E+01
             5.9788500869000680E+00    5.8882515165000608E+00    1.4094239568500162E+01
             7.1943473363000789E+00    5.8799164377000617E+00    1.4701118490300162E+01
             7.1912293097000806E+00    5.8521058221000679E+00    1.6050622658200190E+01
             6.3086348447000740E+00    5.8615539361000693E+00    1.6548439365000199E+01
             8.0709262665000896E+00    5.8621389354000613E+00    1.6553588809700184E+01
             7.3120000000000758E+00    5.9340000000000668E+00    2.1043000000000220E+01
             5.8130000000000646E+00    7.4340000000000837E+00    2.2992000000000271E+01
             8.8130000000000930E+00    4.4340000000000472E+00    2.2992000000000271E+01
             5.8130000000000646E+00    4.4330000000000505E+00    2.2992000000000271E+01
             8.8130000000000930E+00    7.4340000000000837E+00    2.2992000000000271E+01
             1.4780000000000153E+00    1.4780000000000153E+00    2.5082000000000246E+01
             1.4780000000000153E+00    4.4330000000000505E+00    2.5082000000000246E+01
             1.4780000000000153E+00    7.3890000000000855E+00    2.5082000000000246E+01
             4.4340000000000472E+00    1.4780000000000153E+00    2.5082000000000246E+01
             4.4340000000000472E+00    4.4330000000000505E+00    2.5082000000000246E+01
             4.4340000000000472E+00    7.3890000000000855E+00    2.5082000000000246E+01
             7.1920000000000801E+00    1.4780000000000153E+00    2.5082000000000246E+01
             7.1920000000000801E+00    4.4330000000000505E+00    2.5082000000000246E+01
             7.1920000000000801E+00    7.3890000000000855E+00    2.5082000000000246E+01
             1.0148000000000110E+01    1.4780000000000153E+00    2.5082000000000246E+01
             1.0148000000000110E+01    4.4330000000000505E+00    2.5082000000000246E+01
             1.0148000000000110E+01    7.3890000000000855E+00    2.5082000000000246E+01
             1.3104000000000140E+01    1.4780000000000153E+00    2.5082000000000246E+01
             1.3104000000000140E+01    4.4330000000000505E+00    2.5082000000000246E+01
             1.3104000000000140E+01    7.3890000000000855E+00    2.5082000000000246E+01
             0.0000000000000000E+00    0.0000000000000000E+00    2.7172000000000288E+01
             0.0000000000000000E+00    2.9550000000000312E+00    2.7172000000000288E+01
             0.0000000000000000E+00    5.9110000000000600E+00    2.7172000000000288E+01
             2.9560000000000306E+00    0.0000000000000000E+00    2.7172000000000288E+01
             2.9560000000000306E+00    2.9550000000000312E+00    2.7172000000000288E+01
             2.9560000000000306E+00    5.9110000000000600E+00    2.7172000000000288E+01
             5.9120000000000612E+00    0.0000000000000000E+00    2.7172000000000288E+01
             5.9120000000000612E+00    2.9550000000000312E+00    2.7172000000000288E+01
             5.9120000000000612E+00    5.9110000000000600E+00    2.7172000000000288E+01
             8.6700000000000994E+00    0.0000000000000000E+00    2.7172000000000288E+01
             8.6700000000000994E+00    2.9550000000000312E+00    2.7172000000000288E+01
             8.6700000000000994E+00    5.9110000000000600E+00    2.7172000000000288E+01
             1.1626000000000129E+01    0.0000000000000000E+00    2.7172000000000288E+01
             1.1626000000000129E+01    2.9550000000000312E+00    2.7172000000000288E+01
             1.1626000000000129E+01    5.9110000000000600E+00    2.7172000000000288E+01
             1.4780000000000153E+00    1.4780000000000153E+00    2.9262000000000295E+01
             1.4780000000000153E+00    4.4330000000000505E+00    2.9262000000000295E+01
             1.4780000000000153E+00    7.3890000000000855E+00    2.9262000000000295E+01
             4.4340000000000472E+00    1.4780000000000153E+00    2.9262000000000295E+01
             4.4340000000000472E+00    4.4330000000000505E+00    2.9262000000000295E+01
             4.4340000000000472E+00    7.3890000000000855E+00    2.9262000000000295E+01
             7.1920000000000801E+00    1.4780000000000153E+00    2.9262000000000295E+01
             7.1920000000000801E+00    4.4330000000000505E+00    2.9262000000000295E+01
             7.1920000000000801E+00    7.3890000000000855E+00    2.9262000000000295E+01
             1.0148000000000110E+01    1.4780000000000153E+00    2.9262000000000295E+01
             1.0148000000000110E+01    4.4330000000000505E+00    2.9262000000000295E+01
             1.0148000000000110E+01    7.3890000000000855E+00    2.9262000000000295E+01
             1.3104000000000140E+01    1.4780000000000153E+00    2.9262000000000295E+01
             1.3104000000000140E+01    4.4330000000000505E+00    2.9262000000000295E+01
             1.3104000000000140E+01    7.3890000000000855E+00    2.9262000000000295E+01
             0.0000000000000000E+00    0.0000000000000000E+00    3.1352000000000341E+01
             0.0000000000000000E+00    2.9550000000000312E+00    3.1352000000000341E+01
             0.0000000000000000E+00    5.9110000000000600E+00    3.1352000000000341E+01
             2.9560000000000306E+00    0.0000000000000000E+00    3.1352000000000341E+01
             2.9560000000000306E+00    2.9550000000000312E+00    3.1352000000000341E+01
             2.9560000000000306E+00    5.9110000000000600E+00    3.1352000000000341E+01
             5.9120000000000612E+00    0.0000000000000000E+00    3.1352000000000341E+01
             5.9120000000000612E+00    2.9550000000000312E+00    3.1352000000000341E+01
             5.9120000000000612E+00    5.9110000000000600E+00    3.1352000000000341E+01
             8.6700000000000994E+00    0.0000000000000000E+00    3.1352000000000341E+01
             8.6700000000000994E+00    2.9550000000000312E+00    3.1352000000000341E+01
             8.6700000000000994E+00    5.9110000000000600E+00    3.1352000000000341E+01
             1.1626000000000129E+01    0.0000000000000000E+00    3.1352000000000341E+01
             1.1626000000000129E+01    2.9550000000000312E+00    3.1352000000000341E+01
             1.1626000000000129E+01    5.9110000000000600E+00    3.1352000000000341E+01
             1.4780000000000153E+00    1.4780000000000153E+00    3.3442000000000377E+01
             1.4780000000000153E+00    4.4330000000000505E+00    3.3442000000000377E+01
             1.4780000000000153E+00    7.3890000000000855E+00    3.3442000000000377E+01
             4.4340000000000472E+00    1.4780000000000153E+00    3.3442000000000377E+01
             4.4340000000000472E+00    4.4330000000000505E+00    3.3442000000000377E+01
             4.4340000000000472E+00    7.3890000000000855E+00    3.3442000000000377E+01
             7.1920000000000801E+00    1.4780000000000153E+00    3.3442000000000377E+01
             7.1920000000000801E+00    4.4330000000000505E+00    3.3442000000000377E+01
             7.1920000000000801E+00    7.3890000000000855E+00    3.3442000000000377E+01
             1.0148000000000110E+01    1.4780000000000153E+00    3.3442000000000377E+01
             1.0148000000000110E+01    4.4330000000000505E+00    3.3442000000000377E+01
             1.0148000000000110E+01    7.3890000000000855E+00    3.3442000000000377E+01
             1.3104000000000140E+01    1.4780000000000153E+00    3.3442000000000377E+01
             1.3104000000000140E+01    4.4330000000000505E+00    3.3442000000000377E+01
             1.3104000000000140E+01    7.3890000000000855E+00    3.3442000000000377E+01
       &END COORD
       &VELOCITY
             0.0000000000000000E+00    0.0000000000000000E+00    0.0000000000000000E+00
             0.0000000000000000E+00    0.0000000000000000E+00    0.0000000000000000E+00
             0.0000000000000000E+00    0.0000000000000000E+00    0.0000000000000000E+00
             0.0000000000000000E+00    0.0000000000000000E+00    0.0000000000000000E+00
             0.0000000000000000E+00    0.0000000000000000E+00    0.0000000000000000E+00
             0.0000000000000000E+00    0.0000000000000000E+00    0.0000000000000000E+00
             0.0000000000000000E+00    0.0000000000000000E+00    0.0000000000000000E+00
             0.0000000000000000E+00    0.0000000000000000E+00    0.0000000000000000E+00
             0.0000000000000000E+00    0.0000000000000000E+00    0.0000000000000000E+00
             0.0000000000000000E+00    0.0000000000000000E+00    0.0000000000000000E+00
             0.0000000000000000E+00    0.0000000000000000E+00    0.0000000000000000E+00
             0.0000000000000000E+00    0.0000000000000000E+00    0.0000000000000000E+00
             0.0000000000000000E+00    0.0000000000000000E+00    0.0000000000000000E+00
             0.0000000000000000E+00    0.0000000000000000E+00    0.0000000000000000E+00
             0.0000000000000000E+00    0.0000000000000000E+00    0.0000000000000000E+00
             0.0000000000000000E+00    0.0000000000000000E+00    0.0000000000000000E+00
             0.0000000000000000E+00    0.0000000000000000E+00    0.0000000000000000E+00
             0.0000000000000000E+00    0.0000000000000000E+00    0.0000000000000000E+00
             0.0000000000000000E+00    0.0000000000000000E+00    0.0000000000000000E+00
             0.0000000000000000E+00    0.0000000000000000E+00    0.0000000000000000E+00
             0.0000000000000000E+00    0.0000000000000000E+00    0.0000000000000000E+00
             0.0000000000000000E+00    0.0000000000000000E+00    0.0000000000000000E+00
             0.0000000000000000E+00    0.0000000000000000E+00    0.0000000000000000E+00
             0.0000000000000000E+00    0.0000000000000000E+00    0.0000000000000000E+00
             0.0000000000000000E+00    0.0000000000000000E+00    0.0000000000000000E+00
             0.0000000000000000E+00    0.0000000000000000E+00    0.0000000000000000E+00
             0.0000000000000000E+00    0.0000000000000000E+00    0.0000000000000000E+00
             0.0000000000000000E+00    0.0000000000000000E+00    0.0000000000000000E+00
             0.0000000000000000E+00    0.0000000000000000E+00    0.0000000000000000E+00
             0.0000000000000000E+00    0.0000000000000000E+00    0.0000000000000000E+00
             0.0000000000000000E+00    0.0000000000000000E+00    0.0000000000000000E+00
             0.0000000000000000E+00    0.0000000000000000E+00    0.0000000000000000E+00
             0.0000000000000000E+00    0.0000000000000000E+00    0.0000000000000000E+00
             0.0000000000000000E+00    0.0000000000000000E+00    0.0000000000000000E+00
             0.0000000000000000E+00    0.0000000000000000E+00    0.0000000000000000E+00
             0.0000000000000000E+00    0.0000000000000000E+00    0.0000000000000000E+00
             0.0000000000000000E+00    0.0000000000000000E+00    0.0000000000000000E+00
             0.0000000000000000E+00    0.0000000000000000E+00    0.0000000000000000E+00
             0.0000000000000000E+00    0.0000000000000000E+00    0.0000000000000000E+00
             0.0000000000000000E+00    0.0000000000000000E+00    0.0000000000000000E+00
             0.0000000000000000E+00    0.0000000000000000E+00    0.0000000000000000E+00
             0.0000000000000000E+00    0.0000000000000000E+00    0.0000000000000000E+00
             0.0000000000000000E+00    0.0000000000000000E+00    0.0000000000000000E+00
             0.0000000000000000E+00    0.0000000000000000E+00    0.0000000000000000E+00
             0.0000000000000000E+00    0.0000000000000000E+00    0.0000000000000000E+00
             0.0000000000000000E+00    0.0000000000000000E+00    0.0000000000000000E+00
             0.0000000000000000E+00    0.0000000000000000E+00    0.0000000000000000E+00
             0.0000000000000000E+00    0.0000000000000000E+00    0.0000000000000000E+00
             0.0000000000000000E+00    0.0000000000000000E+00    0.0000000000000000E+00
             0.0000000000000000E+00    0.0000000000000000E+00    0.0000000000000000E+00
             0.0000000000000000E+00    0.0000000000000000E+00    0.0000000000000000E+00
             0.0000000000000000E+00    0.0000000000000000E+00    0.0000000000000000E+00
             0.0000000000000000E+00    0.0000000000000000E+00    0.0000000000000000E+00
             0.0000000000000000E+00    0.0000000000000000E+00    0.0000000000000000E+00
             0.0000000000000000E+00    0.0000000000000000E+00    0.0000000000000000E+00
             0.0000000000000000E+00    0.0000000000000000E+00    0.0000000000000000E+00
             0.0000000000000000E+00    0.0000000000000000E+00    0.0000000000000000E+00
             0.0000000000000000E+00    0.0000000000000000E+00    0.0000000000000000E+00
             0.0000000000000000E+00    0.0000000000000000E+00    0.0000000000000000E+00
             0.0000000000000000E+00    0.0000000000000000E+00    0.0000000000000000E+00
             0.0000000000000000E+00    0.0000000000000000E+00    0.0000000000000000E+00
             0.0000000000000000E+00    0.0000000000000000E+00    0.0000000000000000E+00
             0.0000000000000000E+00    0.0000000000000000E+00    0.0000000000000000E+00
             0.0000000000000000E+00    0.0000000000000000E+00    0.0000000000000000E+00
             0.0000000000000000E+00    0.0000000000000000E+00    0.0000000000000000E+00
             0.0000000000000000E+00    0.0000000000000000E+00    0.0000000000000000E+00
             0.0000000000000000E+00    0.0000000000000000E+00    0.0000000000000000E+00
             0.0000000000000000E+00    0.0000000000000000E+00    0.0000000000000000E+00
             0.0000000000000000E+00    0.0000000000000000E+00    0.0000000000000000E+00
             0.0000000000000000E+00    0.0000000000000000E+00    0.0000000000000000E+00
             0.0000000000000000E+00    0.0000000000000000E+00    0.0000000000000000E+00
             0.0000000000000000E+00    0.0000000000000000E+00    0.0000000000000000E+00
             0.0000000000000000E+00    0.0000000000000000E+00    0.0000000000000000E+00
             0.0000000000000000E+00    0.0000000000000000E+00    0.0000000000000000E+00
             0.0000000000000000E+00    0.0000000000000000E+00    0.0000000000000000E+00
             0.0000000000000000E+00    0.0000000000000000E+00    0.0000000000000000E+00
             0.0000000000000000E+00    0.0000000000000000E+00    0.0000000000000000E+00
             0.0000000000000000E+00    0.0000000000000000E+00    0.0000000000000000E+00
             0.0000000000000000E+00    0.0000000000000000E+00    0.0000000000000000E+00
             0.0000000000000000E+00    0.0000000000000000E+00    0.0000000000000000E+00
             0.0000000000000000E+00    0.0000000000000000E+00    0.0000000000000000E+00
             0.0000000000000000E+00    0.0000000000000000E+00    0.0000000000000000E+00
             0.0000000000000000E+00    0.0000000000000000E+00    0.0000000000000000E+00
             0.0000000000000000E+00    0.0000000000000000E+00    0.0000000000000000E+00
             0.0000000000000000E+00    0.0000000000000000E+00    0.0000000000000000E+00
             0.0000000000000000E+00    0.0000000000000000E+00    0.0000000000000000E+00
             0.0000000000000000E+00    0.0000000000000000E+00    0.0000000000000000E+00
             0.0000000000000000E+00    0.0000000000000000E+00    0.0000000000000000E+00
             0.0000000000000000E+00    0.0000000000000000E+00    0.0000000000000000E+00
             0.0000000000000000E+00    0.0000000000000000E+00    0.0000000000000000E+00
             0.0000000000000000E+00    0.0000000000000000E+00    0.0000000000000000E+00
             0.0000000000000000E+00    0.0000000000000000E+00    0.0000000000000000E+00
             0.0000000000000000E+00    0.0000000000000000E+00    0.0000000000000000E+00
             0.0000000000000000E+00    0.0000000000000000E+00    0.0000000000000000E+00
             0.0000000000000000E+00    0.0000000000000000E+00    0.0000000000000000E+00
             0.0000000000000000E+00    0.0000000000000000E+00    0.0000000000000000E+00
             0.0000000000000000E+00    0.0000000000000000E+00    0.0000000000000000E+00
             0.0000000000000000E+00    0.0000000000000000E+00    0.0000000000000000E+00
             0.0000000000000000E+00    0.0000000000000000E+00    0.0000000000000000E+00
             0.0000000000000000E+00    0.0000000000000000E+00    0.0000000000000000E+00
             0.0000000000000000E+00    0.0000000000000000E+00    0.0000000000000000E+00
             0.0000000000000000E+00    0.0000000000000000E+00    0.0000000000000000E+00
             0.0000000000000000E+00    0.0000000000000000E+00    0.0000000000000000E+00
             0.0000000000000000E+00    0.0000000000000000E+00    0.0000000000000000E+00
             0.0000000000000000E+00    0.0000000000000000E+00    0.0000000000000000E+00
             0.0000000000000000E+00    0.0000000000000000E+00    0.0000000000000000E+00
             0.0000000000000000E+00    0.0000000000000000E+00    0.0000000000000000E+00
             0.0000000000000000E+00    0.0000000000000000E+00    0.0000000000000000E+00
             0.0000000000000000E+00    0.0000000000000000E+00    0.0000000000000000E+00
             0.0000000000000000E+00    0.0000000000000000E+00    0.0000000000000000E+00
             0.0000000000000000E+00    0.0000000000000000E+00    0.0000000000000000E+00
             0.0000000000000000E+00    0.0000000000000000E+00    0.0000000000000000E+00
             0.0000000000000000E+00    0.0000000000000000E+00    0.0000000000000000E+00
             0.0000000000000000E+00    0.0000000000000000E+00    0.0000000000000000E+00
             0.0000000000000000E+00    0.0000000000000000E+00    0.0000000000000000E+00
             0.0000000000000000E+00    0.0000000000000000E+00    0.0000000000000000E+00
             0.0000000000000000E+00    0.0000000000000000E+00    0.0000000000000000E+00
             0.0000000000000000E+00    0.0000000000000000E+00    0.0000000000000000E+00
             0.0000000000000000E+00    0.0000000000000000E+00    0.0000000000000000E+00
             0.0000000000000000E+00    0.0000000000000000E+00    0.0000000000000000E+00
             0.0000000000000000E+00    0.0000000000000000E+00    0.0000000000000000E+00
             0.0000000000000000E+00    0.0000000000000000E+00    0.0000000000000000E+00
             0.0000000000000000E+00    0.0000000000000000E+00    0.0000000000000000E+00
             0.0000000000000000E+00    0.0000000000000000E+00    0.0000000000000000E+00
             0.0000000000000000E+00    0.0000000000000000E+00    0.0000000000000000E+00
             0.0000000000000000E+00    0.0000000000000000E+00    0.0000000000000000E+00
             0.0000000000000000E+00    0.0000000000000000E+00    0.0000000000000000E+00
             0.0000000000000000E+00    0.0000000000000000E+00    0.0000000000000000E+00
             0.0000000000000000E+00    0.0000000000000000E+00    0.0000000000000000E+00
             0.0000000000000000E+00    0.0000000000000000E+00    0.0000000000000000E+00
             0.0000000000000000E+00    0.0000000000000000E+00    0.0000000000000000E+00
             0.0000000000000000E+00    0.0000000000000000E+00    0.0000000000000000E+00
             0.0000000000000000E+00    0.0000000000000000E+00    0.0000000000000000E+00
             0.0000000000000000E+00    0.0000000000000000E+00    0.0000000000000000E+00
             0.0000000000000000E+00    0.0000000000000000E+00    0.0000000000000000E+00
             0.0000000000000000E+00    0.0000000000000000E+00    0.0000000000000000E+00
             0.0000000000000000E+00    0.0000000000000000E+00    0.0000000000000000E+00
             0.0000000000000000E+00    0.0000000000000000E+00    0.0000000000000000E+00
             0.0000000000000000E+00    0.0000000000000000E+00    0.0000000000000000E+00
             0.0000000000000000E+00    0.0000000000000000E+00    0.0000000000000000E+00
             0.0000000000000000E+00    0.0000000000000000E+00    0.0000000000000000E+00
             0.0000000000000000E+00    0.0000000000000000E+00    0.0000000000000000E+00
             0.0000000000000000E+00    0.0000000000000000E+00    0.0000000000000000E+00
             0.0000000000000000E+00    0.0000000000000000E+00    0.0000000000000000E+00
             0.0000000000000000E+00    0.0000000000000000E+00    0.0000000000000000E+00