 # Version information for this restart file 
 # current date 2024-01-13 10:34:03.646
 # current working dir /gpfs/home/cahart/transport/melamine/au_from-h2/ci-neb/ts1/dft_leads-sz_tip-dzvp_surf-dzvp_kpoints-2-4-20_replicas-5
 # Program compiled at                              Thu 21 Sep 19:20:17 BST 2023
 # Program compiled on                                           hx1-c12-login-1
 # Program compiled for                                                    local
 # Source code revision number                                       git:5518aa6
 &GLOBAL
   EXTENDED_FFT_LENGTHS  T
   PRINT_LEVEL  MEDIUM
   PROJECT_NAME 2_dft_wfn-r-0
   OUTPUT_FILE_NAME 2_dft_wfn-r-0.out
   RUN_TYPE  BAND
 &END GLOBAL
 &MOTION
   &BAND
     NPROC_REP  64
     BAND_TYPE  CI-NEB
     NUMBER_OF_REPLICA  5
     K_SPRING     5.0000000000000003E-02
     &CI_NEB
       NSTEPS_IT  5
     &END CI_NEB
     &OPTIMIZE_BAND
       OPT_TYPE  DIIS
       &DIIS
         MAX_STEPS  1000
       &END DIIS
     &END OPTIMIZE_BAND
     &REPLICA
       &COORD
             0.0000000000000000E+00    0.0000000000000000E+00    0.0000000000000000E+00
             0.0000000000000000E+00    2.9550000000000352E+00    0.0000000000000000E+00
             0.0000000000000000E+00    5.9110000000000724E+00    0.0000000000000000E+00
             2.9560000000000395E+00    0.0000000000000000E+00    0.0000000000000000E+00
             2.9560000000000395E+00    2.9550000000000352E+00    0.0000000000000000E+00
             2.9560000000000395E+00    5.9110000000000724E+00    0.0000000000000000E+00
             5.9120000000000790E+00    0.0000000000000000E+00    0.0000000000000000E+00
             5.9120000000000790E+00    2.9550000000000352E+00    0.0000000000000000E+00
             5.9120000000000790E+00    5.9110000000000724E+00    0.0000000000000000E+00
             8.6700000000001207E+00    0.0000000000000000E+00    0.0000000000000000E+00
             8.6700000000001207E+00    2.9550000000000352E+00    0.0000000000000000E+00
             8.6700000000001207E+00    5.9110000000000724E+00    0.0000000000000000E+00
             1.1626000000000154E+01    0.0000000000000000E+00    0.0000000000000000E+00
             1.1626000000000154E+01    2.9550000000000352E+00    0.0000000000000000E+00
             1.1626000000000154E+01    5.9110000000000724E+00    0.0000000000000000E+00
             1.4780000000000197E+00    1.4780000000000197E+00    2.0900000000000269E+00
             1.4780000000000197E+00    4.4330000000000567E+00    2.0900000000000269E+00
             1.4780000000000197E+00    7.3890000000000953E+00    2.0900000000000269E+00
             4.4340000000000561E+00    1.4780000000000197E+00    2.0900000000000269E+00
             4.4340000000000561E+00    4.4330000000000567E+00    2.0900000000000269E+00
             4.4340000000000561E+00    7.3890000000000953E+00    2.0900000000000269E+00
             7.1920000000000899E+00    1.4780000000000197E+00    2.0900000000000269E+00
             7.1920000000000899E+00    4.4330000000000567E+00    2.0900000000000269E+00
             7.1920000000000899E+00    7.3890000000000953E+00    2.0900000000000269E+00
             1.0148000000000131E+01    1.4780000000000197E+00    2.0900000000000269E+00
             1.0148000000000131E+01    4.4330000000000567E+00    2.0900000000000269E+00
             1.0148000000000131E+01    7.3890000000000953E+00    2.0900000000000269E+00
             1.3104000000000166E+01    1.4780000000000197E+00    2.0900000000000269E+00
             1.3104000000000166E+01    4.4330000000000567E+00    2.0900000000000269E+00
             1.3104000000000166E+01    7.3890000000000953E+00    2.0900000000000269E+00
             0.0000000000000000E+00    0.0000000000000000E+00    4.1800000000000539E+00
             0.0000000000000000E+00    2.9550000000000352E+00    4.1800000000000539E+00
             0.0000000000000000E+00    5.9110000000000724E+00    4.1800000000000539E+00
             2.9560000000000395E+00    0.0000000000000000E+00    4.1800000000000539E+00
             2.9560000000000395E+00    2.9550000000000352E+00    4.1800000000000539E+00
             2.9560000000000395E+00    5.9110000000000724E+00    4.1800000000000539E+00
             5.9120000000000790E+00    0.0000000000000000E+00    4.1800000000000539E+00
             5.9120000000000790E+00    2.9550000000000352E+00    4.1800000000000539E+00
             5.9120000000000790E+00    5.9110000000000724E+00    4.1800000000000539E+00
             8.6700000000001207E+00    0.0000000000000000E+00    4.1800000000000539E+00
             8.6700000000001207E+00    2.9550000000000352E+00    4.1800000000000539E+00
             8.6700000000001207E+00    5.9110000000000724E+00    4.1800000000000539E+00
             1.1626000000000154E+01    0.0000000000000000E+00    4.1800000000000539E+00
             1.1626000000000154E+01    2.9550000000000352E+00    4.1800000000000539E+00
             1.1626000000000154E+01    5.9110000000000724E+00    4.1800000000000539E+00
             1.4780000000000197E+00    1.4780000000000197E+00    6.2700000000000840E+00
             1.4780000000000197E+00    4.4330000000000567E+00    6.2700000000000840E+00
             1.4780000000000197E+00    7.3890000000000953E+00    6.2700000000000840E+00
             4.4340000000000561E+00    1.4780000000000197E+00    6.2700000000000840E+00
             4.4340000000000561E+00    4.4330000000000567E+00    6.2700000000000840E+00
             4.4340000000000561E+00    7.3890000000000953E+00    6.2700000000000840E+00
             7.1920000000000899E+00    1.4780000000000197E+00    6.2700000000000840E+00
             7.1920000000000899E+00    4.4330000000000567E+00    6.2700000000000840E+00
             7.1920000000000899E+00    7.3890000000000953E+00    6.2700000000000840E+00
             1.0148000000000131E+01    1.4780000000000197E+00    6.2700000000000840E+00
             1.0148000000000131E+01    4.4330000000000567E+00    6.2700000000000840E+00
             1.0148000000000131E+01    7.3890000000000953E+00    6.2700000000000840E+00
             1.3104000000000166E+01    1.4780000000000197E+00    6.2700000000000840E+00
             1.3104000000000166E+01    4.4330000000000567E+00    6.2700000000000840E+00
             1.3104000000000166E+01    7.3890000000000953E+00    6.2700000000000840E+00
             0.0000000000000000E+00    0.0000000000000000E+00    8.3600000000001078E+00
             0.0000000000000000E+00    2.9550000000000352E+00    8.3600000000001078E+00
             0.0000000000000000E+00    5.9110000000000724E+00    8.3600000000001078E+00
             2.9560000000000395E+00    0.0000000000000000E+00    8.3600000000001078E+00
             2.9560000000000395E+00    2.9550000000000352E+00    8.3600000000001078E+00
             2.9560000000000395E+00    5.9110000000000724E+00    8.3600000000001078E+00
             5.9120000000000790E+00    0.0000000000000000E+00    8.3600000000001078E+00
             5.9120000000000790E+00    2.9550000000000352E+00    8.3600000000001078E+00
             5.9120000000000790E+00    5.9110000000000724E+00    8.3600000000001078E+00
             8.6700000000001207E+00    0.0000000000000000E+00    8.3600000000001078E+00
             8.6700000000001207E+00    2.9550000000000352E+00    8.3600000000001078E+00
             8.6700000000001207E+00    5.9110000000000724E+00    8.3600000000001078E+00
             1.1626000000000154E+01    0.0000000000000000E+00    8.3600000000001078E+00
             1.1626000000000154E+01    2.9550000000000352E+00    8.3600000000001078E+00
             1.1626000000000154E+01    5.9110000000000724E+00    8.3600000000001078E+00
             1.4780000000000197E+00    1.4780000000000197E+00    1.0450000000000134E+01
             1.4780000000000197E+00    4.4330000000000567E+00    1.0450000000000134E+01
             1.4780000000000197E+00    7.3890000000000953E+00    1.0450000000000134E+01
             4.4340000000000561E+00    1.4780000000000197E+00    1.0450000000000134E+01
             4.4340000000000561E+00    4.4330000000000567E+00    1.0450000000000134E+01
             4.4340000000000561E+00    7.3890000000000953E+00    1.0450000000000134E+01
             7.1920000000000899E+00    1.4780000000000197E+00    1.0450000000000134E+01
             7.1920000000000899E+00    4.4330000000000567E+00    1.0450000000000134E+01
             7.1920000000000899E+00    7.3890000000000953E+00    1.0450000000000134E+01
             1.0148000000000131E+01    1.4780000000000197E+00    1.0450000000000134E+01
             1.0148000000000131E+01    4.4330000000000567E+00    1.0450000000000134E+01
             1.0148000000000131E+01    7.3890000000000953E+00    1.0450000000000134E+01
             1.3104000000000166E+01    1.4780000000000197E+00    1.0450000000000134E+01
             1.3104000000000166E+01    4.4330000000000567E+00    1.0450000000000134E+01
             1.3104000000000166E+01    7.3890000000000953E+00    1.0450000000000134E+01
             4.8554000000000697E+00    5.9119000000000748E+00    1.2031800000000162E+01
             9.5280000000001266E+00    5.9137000000000803E+00    1.2034000000000164E+01
             7.1920000000000899E+00    5.9340000000000845E+00    1.2040000000000163E+01
             4.0750319168000519E+00    5.9049488170000837E+00    1.2696844061800160E+01
             1.0293988349500127E+01    5.9062142779000713E+00    1.2716532694500186E+01
             6.0099999686000807E+00    5.9120523853000808E+00    1.2765819797400169E+01
             8.3750478948001117E+00    5.9129627335000752E+00    1.2760746495900163E+01
             8.4047327065001145E+00    5.8893877816000737E+00    1.4094060897200164E+01
             5.9788500869000840E+00    5.8882515165000715E+00    1.4094239568500189E+01
             7.1943473363000932E+00    5.8799164377000750E+00    1.4701118490300191E+01
             7.1912293097000903E+00    5.8521058221000812E+00    1.6050622658200229E+01
             6.3086348447000926E+00    5.8615539361000772E+00    1.6548439365000220E+01
             8.0709262665001109E+00    5.8621389354000728E+00    1.6553588809700219E+01
             7.3120000000000962E+00    5.9340000000000845E+00    2.1043000000000262E+01
             5.8130000000000770E+00    7.4340000000001014E+00    2.2992000000000328E+01
             8.8130000000001125E+00    4.4340000000000561E+00    2.2992000000000328E+01
             5.8130000000000770E+00    4.4330000000000567E+00    2.2992000000000328E+01
             8.8130000000001125E+00    7.4340000000001014E+00    2.2992000000000328E+01
             1.4780000000000197E+00    1.4780000000000197E+00    2.5082000000000278E+01
             1.4780000000000197E+00    4.4330000000000567E+00    2.5082000000000278E+01
             1.4780000000000197E+00    7.3890000000000953E+00    2.5082000000000278E+01
             4.4340000000000561E+00    1.4780000000000197E+00    2.5082000000000278E+01
             4.4340000000000561E+00    4.4330000000000567E+00    2.5082000000000278E+01
             4.4340000000000561E+00    7.3890000000000953E+00    2.5082000000000278E+01
             7.1920000000000899E+00    1.4780000000000197E+00    2.5082000000000278E+01
             7.1920000000000899E+00    4.4330000000000567E+00    2.5082000000000278E+01
             7.1920000000000899E+00    7.3890000000000953E+00    2.5082000000000278E+01
             1.0148000000000131E+01    1.4780000000000197E+00    2.5082000000000278E+01
             1.0148000000000131E+01    4.4330000000000567E+00    2.5082000000000278E+01
             1.0148000000000131E+01    7.3890000000000953E+00    2.5082000000000278E+01
             1.3104000000000166E+01    1.4780000000000197E+00    2.5082000000000278E+01
             1.3104000000000166E+01    4.4330000000000567E+00    2.5082000000000278E+01
             1.3104000000000166E+01    7.3890000000000953E+00    2.5082000000000278E+01
             0.0000000000000000E+00    0.0000000000000000E+00    2.7172000000000367E+01
             0.0000000000000000E+00    2.9550000000000352E+00    2.7172000000000367E+01
             0.0000000000000000E+00    5.9110000000000724E+00    2.7172000000000367E+01
             2.9560000000000395E+00    0.0000000000000000E+00    2.7172000000000367E+01
             2.9560000000000395E+00    2.9550000000000352E+00    2.7172000000000367E+01
             2.9560000000000395E+00    5.9110000000000724E+00    2.7172000000000367E+01
             5.9120000000000790E+00    0.0000000000000000E+00    2.7172000000000367E+01
             5.9120000000000790E+00    2.9550000000000352E+00    2.7172000000000367E+01
             5.9120000000000790E+00    5.9110000000000724E+00    2.7172000000000367E+01
             8.6700000000001207E+00    0.0000000000000000E+00    2.7172000000000367E+01
             8.6700000000001207E+00    2.9550000000000352E+00    2.7172000000000367E+01
             8.6700000000001207E+00    5.9110000000000724E+00    2.7172000000000367E+01
             1.1626000000000154E+01    0.0000000000000000E+00    2.7172000000000367E+01
             1.1626000000000154E+01    2.9550000000000352E+00    2.7172000000000367E+01
             1.1626000000000154E+01    5.9110000000000724E+00    2.7172000000000367E+01
             1.4780000000000197E+00    1.4780000000000197E+00    2.9262000000000352E+01
             1.4780000000000197E+00    4.4330000000000567E+00    2.9262000000000352E+01
             1.4780000000000197E+00    7.3890000000000953E+00    2.9262000000000352E+01
             4.4340000000000561E+00    1.4780000000000197E+00    2.9262000000000352E+01
             4.4340000000000561E+00    4.4330000000000567E+00    2.9262000000000352E+01
             4.4340000000000561E+00    7.3890000000000953E+00    2.9262000000000352E+01
             7.1920000000000899E+00    1.4780000000000197E+00    2.9262000000000352E+01
             7.1920000000000899E+00    4.4330000000000567E+00    2.9262000000000352E+01
             7.1920000000000899E+00    7.3890000000000953E+00    2.9262000000000352E+01
             1.0148000000000131E+01    1.4780000000000197E+00    2.9262000000000352E+01
             1.0148000000000131E+01    4.4330000000000567E+00    2.9262000000000352E+01
             1.0148000000000131E+01    7.3890000000000953E+00    2.9262000000000352E+01
             1.3104000000000166E+01    1.4780000000000197E+00    2.9262000000000352E+01
             1.3104000000000166E+01    4.4330000000000567E+00    2.9262000000000352E+01
             1.3104000000000166E+01    7.3890000000000953E+00    2.9262000000000352E+01
             0.0000000000000000E+00    0.0000000000000000E+00    3.1352000000000427E+01
             0.0000000000000000E+00    2.9550000000000352E+00    3.1352000000000427E+01
             0.0000000000000000E+00    5.9110000000000724E+00    3.1352000000000427E+01
             2.9560000000000395E+00    0.0000000000000000E+00    3.1352000000000427E+01
             2.9560000000000395E+00    2.9550000000000352E+00    3.1352000000000427E+01
             2.9560000000000395E+00    5.9110000000000724E+00    3.1352000000000427E+01
             5.9120000000000790E+00    0.0000000000000000E+00    3.1352000000000427E+01
             5.9120000000000790E+00    2.9550000000000352E+00    3.1352000000000427E+01
             5.9120000000000790E+00    5.9110000000000724E+00    3.1352000000000427E+01
             8.6700000000001207E+00    0.0000000000000000E+00    3.1352000000000427E+01
             8.6700000000001207E+00    2.9550000000000352E+00    3.1352000000000427E+01
             8.6700000000001207E+00    5.9110000000000724E+00    3.1352000000000427E+01
             1.1626000000000154E+01    0.0000000000000000E+00    3.1352000000000427E+01
             1.1626000000000154E+01    2.9550000000000352E+00    3.1352000000000427E+01
             1.1626000000000154E+01    5.9110000000000724E+00    3.1352000000000427E+01
             1.4780000000000197E+00    1.4780000000000197E+00    3.3442000000000441E+01
             1.4780000000000197E+00    4.4330000000000567E+00    3.3442000000000441E+01
             1.4780000000000197E+00    7.3890000000000953E+00    3.3442000000000441E+01
             4.4340000000000561E+00    1.4780000000000197E+00    3.3442000000000441E+01
             4.4340000000000561E+00    4.4330000000000567E+00    3.3442000000000441E+01
             4.4340000000000561E+00    7.3890000000000953E+00    3.3442000000000441E+01
             7.1920000000000899E+00    1.4780000000000197E+00    3.3442000000000441E+01
             7.1920000000000899E+00    4.4330000000000567E+00    3.3442000000000441E+01
             7.1920000000000899E+00    7.3890000000000953E+00    3.3442000000000441E+01
             1.0148000000000131E+01    1.4780000000000197E+00    3.3442000000000441E+01
             1.0148000000000131E+01    4.4330000000000567E+00    3.3442000000000441E+01
             1.0148000000000131E+01    7.3890000000000953E+00    3.3442000000000441E+01
             1.3104000000000166E+01    1.4780000000000197E+00    3.3442000000000441E+01
             1.3104000000000166E+01    4.4330000000000567E+00    3.3442000000000441E+01
             1.3104000000000166E+01    7.3890000000000953E+00    3.3442000000000441E+01
       &END COORD
       &VELOCITY
             0.0000000000000000E+00    0.0000000000000000E+00    0.0000000000000000E+00
             0.0000000000000000E+00    0.0000000000000000E+00    0.0000000000000000E+00
             0.0000000000000000E+00    0.0000000000000000E+00    0.0000000000000000E+00
             0.0000000000000000E+00    0.0000000000000000E+00    0.0000000000000000E+00
             0.0000000000000000E+00    0.0000000000000000E+00    0.0000000000000000E+00
             0.0000000000000000E+00    0.0000000000000000E+00    0.0000000000000000E+00
             0.0000000000000000E+00    0.0000000000000000E+00    0.0000000000000000E+00
             0.0000000000000000E+00    0.0000000000000000E+00    0.0000000000000000E+00
             0.0000000000000000E+00    0.0000000000000000E+00    0.0000000000000000E+00
             0.0000000000000000E+00    0.0000000000000000E+00    0.0000000000000000E+00
             0.0000000000000000E+00    0.0000000000000000E+00    0.0000000000000000E+00
             0.0000000000000000E+00    0.0000000000000000E+00    0.0000000000000000E+00
             0.0000000000000000E+00    0.0000000000000000E+00    0.0000000000000000E+00
             0.0000000000000000E+00    0.0000000000000000E+00    0.0000000000000000E+00
             0.0000000000000000E+00    0.0000000000000000E+00    0.0000000000000000E+00
             0.0000000000000000E+00    0.0000000000000000E+00    0.0000000000000000E+00
             0.0000000000000000E+00    0.0000000000000000E+00    0.0000000000000000E+00
             0.0000000000000000E+00    0.0000000000000000E+00    0.0000000000000000E+00
             0.0000000000000000E+00    0.0000000000000000E+00    0.0000000000000000E+00
             0.0000000000000000E+00    0.0000000000000000E+00    0.0000000000000000E+00
             0.0000000000000000E+00    0.0000000000000000E+00    0.0000000000000000E+00
             0.0000000000000000E+00    0.0000000000000000E+00    0.0000000000000000E+00
             0.0000000000000000E+00    0.0000000000000000E+00    0.0000000000000000E+00
             0.0000000000000000E+00    0.0000000000000000E+00    0.0000000000000000E+00
             0.0000000000000000E+00    0.0000000000000000E+00    0.0000000000000000E+00
             0.0000000000000000E+00    0.0000000000000000E+00    0.0000000000000000E+00
             0.0000000000000000E+00    0.0000000000000000E+00    0.0000000000000000E+00
             0.0000000000000000E+00    0.0000000000000000E+00    0.0000000000000000E+00
             0.0000000000000000E+00    0.0000000000000000E+00    0.0000000000000000E+00
             0.0000000000000000E+00    0.0000000000000000E+00    0.0000000000000000E+00
             0.0000000000000000E+00    0.0000000000000000E+00    0.0000000000000000E+00
             0.0000000000000000E+00    0.0000000000000000E+00    0.0000000000000000E+00
             0.0000000000000000E+00    0.0000000000000000E+00    0.0000000000000000E+00
             0.0000000000000000E+00    0.0000000000000000E+00    0.0000000000000000E+00
             0.0000000000000000E+00    0.0000000000000000E+00    0.0000000000000000E+00
             0.0000000000000000E+00    0.0000000000000000E+00    0.0000000000000000E+00
             0.0000000000000000E+00    0.0000000000000000E+00    0.0000000000000000E+00
             0.0000000000000000E+00    0.0000000000000000E+00    0.0000000000000000E+00
             0.0000000000000000E+00    0.0000000000000000E+00    0.0000000000000000E+00
             0.0000000000000000E+00    0.0000000000000000E+00    0.0000000000000000E+00
             0.0000000000000000E+00    0.0000000000000000E+00    0.0000000000000000E+00
             0.0000000000000000E+00    0.0000000000000000E+00    0.0000000000000000E+00
             0.0000000000000000E+00    0.0000000000000000E+00    0.0000000000000000E+00
             0.0000000000000000E+00    0.0000000000000000E+00    0.0000000000000000E+00
             0.0000000000000000E+00    0.0000000000000000E+00    0.0000000000000000E+00
             0.0000000000000000E+00    0.0000000000000000E+00    0.0000000000000000E+00
             0.0000000000000000E+00    0.0000000000000000E+00    0.0000000000000000E+00
             0.0000000000000000E+00    0.0000000000000000E+00    0.0000000000000000E+00
             0.0000000000000000E+00    0.0000000000000000E+00    0.0000000000000000E+00
             0.0000000000000000E+00    0.0000000000000000E+00    0.0000000000000000E+00
             0.0000000000000000E+00    0.0000000000000000E+00    0.0000000000000000E+00
             0.0000000000000000E+00    0.0000000000000000E+00    0.0000000000000000E+00
             0.0000000000000000E+00    0.0000000000000000E+00    0.0000000000000000E+00
             0.0000000000000000E+00    0.0000000000000000E+00    0.0000000000000000E+00
             0.0000000000000000E+00    0.0000000000000000E+00    0.0000000000000000E+00
             0.0000000000000000E+00    0.0000000000000000E+00    0.0000000000000000E+00
             0.0000000000000000E+00    0.0000000000000000E+00    0.0000000000000000E+00
             0.0000000000000000E+00    0.0000000000000000E+00    0.0000000000000000E+00
             0.0000000000000000E+00    0.0000000000000000E+00    0.0000000000000000E+00
             0.0000000000000000E+00    0.0000000000000000E+00    0.0000000000000000E+00
             0.0000000000000000E+00    0.0000000000000000E+00    0.0000000000000000E+00
             0.0000000000000000E+00    0.0000000000000000E+00    0.0000000000000000E+00
             0.0000000000000000E+00    0.0000000000000000E+00    0.0000000000000000E+00
             0.0000000000000000E+00    0.0000000000000000E+00    0.0000000000000000E+00
             0.0000000000000000E+00    0.0000000000000000E+00    0.0000000000000000E+00
             0.0000000000000000E+00    0.0000000000000000E+00    0.0000000000000000E+00
             0.0000000000000000E+00    0.0000000000000000E+00    0.0000000000000000E+00
             0.0000000000000000E+00    0.0000000000000000E+00    0.0000000000000000E+00
             0.0000000000000000E+00    0.0000000000000000E+00    0.0000000000000000E+00
             0.0000000000000000E+00    0.0000000000000000E+00    0.0000000000000000E+00
             0.0000000000000000E+00    0.0000000000000000E+00    0.0000000000000000E+00
             0.0000000000000000E+00    0.0000000000000000E+00    0.0000000000000000E+00
             0.0000000000000000E+00    0.0000000000000000E+00    0.0000000000000000E+00
             0.0000000000000000E+00    0.0000000000000000E+00    0.0000000000000000E+00
             0.0000000000000000E+00    0.0000000000000000E+00    0.0000000000000000E+00
             0.0000000000000000E+00    0.0000000000000000E+00    0.0000000000000000E+00
             0.0000000000000000E+00    0.0000000000000000E+00    0.0000000000000000E+00
             0.0000000000000000E+00    0.0000000000000000E+00    0.0000000000000000E+00
             0.0000000000000000E+00    0.0000000000000000E+00    0.0000000000000000E+00
             0.0000000000000000E+00    0.0000000000000000E+00    0.0000000000000000E+00
             0.0000000000000000E+00    0.0000000000000000E+00    0.0000000000000000E+00
             0.0000000000000000E+00    0.0000000000000000E+00    0.0000000000000000E+00
             0.0000000000000000E+00    0.0000000000000000E+00    0.0000000000000000E+00
             0.0000000000000000E+00    0.0000000000000000E+00    0.0000000000000000E+00
             0.0000000000000000E+00    0.0000000000000000E+00    0.0000000000000000E+00
             0.0000000000000000E+00    0.0000000000000000E+00    0.0000000000000000E+00
             0.0000000000000000E+00    0.0000000000000000E+00    0.0000000000000000E+00
             0.0000000000000000E+00    0.0000000000000000E+00    0.0000000000000000E+00
             0.0000000000000000E+00    0.0000000000000000E+00    0.0000000000000000E+00
             0.0000000000000000E+00    0.0000000000000000E+00    0.0000000000000000E+00
             0.0000000000000000E+00    0.0000000000000000E+00    0.0000000000000000E+00
             0.0000000000000000E+00    0.0000000000000000E+00    0.0000000000000000E+00
             0.0000000000000000E+00    0.0000000000000000E+00    0.0000000000000000E+00
             0.0000000000000000E+00    0.0000000000000000E+00    0.0000000000000000E+00
             0.0000000000000000E+00    0.0000000000000000E+00    0.0000000000000000E+00
             0.0000000000000000E+00    0.0000000000000000E+00    0.0000000000000000E+00
             0.0000000000000000E+00    0.0000000000000000E+00    0.0000000000000000E+00
             0.0000000000000000E+00    0.0000000000000000E+00    0.0000000000000000E+00
             0.0000000000000000E+00    0.0000000000000000E+00    0.0000000000000000E+00
             0.0000000000000000E+00    0.0000000000000000E+00    0.0000000000000000E+00
             0.0000000000000000E+00    0.0000000000000000E+00    0.0000000000000000E+00
             0.0000000000000000E+00    0.0000000000000000E+00    0.0000000000000000E+00
             0.0000000000000000E+00    0.0000000000000000E+00    0.0000000000000000E+00
             0.0000000000000000E+00    0.0000000000000000E+00    0.0000000000000000E+00
             0.0000000000000000E+00    0.0000000000000000E+00    0.0000000000000000E+00
             0.0000000000000000E+00    0.0000000000000000E+00    0.0000000000000000E+00
             0.0000000000000000E+00    0.0000000000000000E+00    0.0000000000000000E+00
             0.0000000000000000E+00    0.0000000000000000E+00    0.0000000000000000E+00
             0.0000000000000000E+00    0.0000000000000000E+00    0.0000000000000000E+00
             0.0000000000000000E+00    0.0000000000000000E+00    0.0000000000000000E+00
             0.0000000000000000E+00    0.0000000000000000E+00    0.0000000000000000E+00
             0.0000000000000000E+00    0.0000000000000000E+00    0.0000000000000000E+00
             0.0000000000000000E+00    0.0000000000000000E+00    0.0000000000000000E+00
             0.0000000000000000E+00    0.0000000000000000E+00    0.0000000000000000E+00
             0.0000000000000000E+00    0.0000000000000000E+00    0.0000000000000000E+00
             0.0000000000000000E+00    0.0000000000000000E+00    0.0000000000000000E+00
             0.0000000000000000E+00    0.0000000000000000E+00    0.0000000000000000E+00
             0.0000000000000000E+00    0.0000000000000000E+00    0.0000000000000000E+00
             0.0000000000000000E+00    0.0000000000000000E+00    0.0000000000000000E+00
             0.0000000000000000E+00    0.0000000000000000E+00    0.0000000000000000E+00
             0.0000000000000000E+00    0.0000000000000000E+00    0.0000000000000000E+00
             0.0000000000000000E+00    0.0000000000000000E+00    0.0000000000000000E+00
             0.0000000000000000E+00    0.0000000000000000E+00    0.0000000000000000E+00
             0.0000000000000000E+00    0.0000000000000000E+00    0.0000000000000000E+00
             0.0000000000000000E+00    0.0000000000000000E+00    0.0000000000000000E+00
             0.0000000000000000E+00    0.0000000000000000E+00    0.0000000000000000E+00
             0.0000000000000000E+00    0.0000000000000000E+00    0.0000000000000000E+00
             0.0000000000000000E+00    0.0000000000000000E+00    0.0000000000000000E+00
             0.0000000000000000E+00    0.0000000000000000E+00    0.0000000000000000E+00
             0.0000000000000000E+00    0.0000000000000000E+00    0.0000000000000000E+00
             0.0000000000000000E+00    0.0000000000000000E+00    0.0000000000000000E+00
             0.0000000000000000E+00    0.0000000000000000E+00    0.0000000000000000E+00
             0.0000000000000000E+00    0.0000000000000000E+00    0.0000000000000000E+00
             0.0000000000000000E+00    0.0000000000000000E+00    0.0000000000000000E+00
             0.0000000000000000E+00    0.0000000000000000E+00    0.0000000000000000E+00
             0.0000000000000000E+00    0.0000000000000000E+00    0.0000000000000000E+00
             0.0000000000000000E+00    0.0000000000000000E+00    0.0000000000000000E+00
             0.0000000000000000E+00    0.0000000000000000E+00    0.0000000000000000E+00
             0.0000000000000000E+00    0.0000000000000000E+00    0.0000000000000000E+00
             0.0000000000000000E+00    0.0000000000000000E+00    0.0000000000000000E+00
             0.0000000000000000E+00    0.0000000000000000E+00    0.0000000000000000E+00
             0.0000000000000000E+00    0.0000000000000000E+00    0.0000000000000000E+00
             0.0000000000000000E+00    0.0000000000000000E+00    0.0000000000000000E+00
             0.0000000000000000E+00    0.0000000000000000E+00    0.0000000000000000E+00
             0.0000000000000000E+00    0.0000000000000000E+00    0.0000000000000000E+00