 # Version information for this restart file 
 # current date 2024-01-12 19:15:55.006
 # current working dir /gpfs/home/cahart/transport/melamine/au_from-h2/ci-neb/ts1/dft_leads-sz_tip-dzvp_surf-dzvp_kpoints-2-4-20_replicas-5
 # Program compiled at                              Thu 21 Sep 19:20:17 BST 2023
 # Program compiled on                                           hx1-c12-login-1
 # Program compiled for                                                    local
 # Source code revision number                                       git:5518aa6
 &GLOBAL
   EXTENDED_FFT_LENGTHS  T
   PRINT_LEVEL  MEDIUM
   PROJECT_NAME 2_dft_wfn-r-0
   OUTPUT_FILE_NAME 2_dft_wfn-r-0.out
   RUN_TYPE  BAND
 &END GLOBAL
 &MOTION
   &BAND
     NPROC_REP  64
     BAND_TYPE  CI-NEB
     NUMBER_OF_REPLICA  5
     K_SPRING     5.0000000000000003E-02
     &CI_NEB
       NSTEPS_IT  5
     &END CI_NEB
     &OPTIMIZE_BAND
       OPT_TYPE  DIIS
       &DIIS
         MAX_STEPS  1000
       &END DIIS
     &END OPTIMIZE_BAND
     &REPLICA
       &COORD
             0.0000000000000000E+00    0.0000000000000000E+00    0.0000000000000000E+00
             0.0000000000000000E+00    2.9550000000000289E+00    0.0000000000000000E+00
             0.0000000000000000E+00    5.9110000000000582E+00    0.0000000000000000E+00
             2.9560000000000288E+00    0.0000000000000000E+00    0.0000000000000000E+00
             2.9560000000000288E+00    2.9550000000000289E+00    0.0000000000000000E+00
             2.9560000000000288E+00    5.9110000000000582E+00    0.0000000000000000E+00
             5.9120000000000577E+00    0.0000000000000000E+00    0.0000000000000000E+00
             5.9120000000000577E+00    2.9550000000000289E+00    0.0000000000000000E+00
             5.9120000000000577E+00    5.9110000000000582E+00    0.0000000000000000E+00
             8.6700000000000923E+00    0.0000000000000000E+00    0.0000000000000000E+00
             8.6700000000000923E+00    2.9550000000000289E+00    0.0000000000000000E+00
             8.6700000000000923E+00    5.9110000000000582E+00    0.0000000000000000E+00
             1.1626000000000117E+01    0.0000000000000000E+00    0.0000000000000000E+00
             1.1626000000000117E+01    2.9550000000000289E+00    0.0000000000000000E+00
             1.1626000000000117E+01    5.9110000000000582E+00    0.0000000000000000E+00
             1.4780000000000144E+00    1.4780000000000144E+00    2.0900000000000198E+00
             1.4780000000000144E+00    4.4330000000000451E+00    2.0900000000000198E+00
             1.4780000000000144E+00    7.3890000000000793E+00    2.0900000000000198E+00
             4.4340000000000446E+00    1.4780000000000144E+00    2.0900000000000198E+00
             4.4340000000000446E+00    4.4330000000000451E+00    2.0900000000000198E+00
             4.4340000000000446E+00    7.3890000000000793E+00    2.0900000000000198E+00
             7.1920000000000730E+00    1.4780000000000144E+00    2.0900000000000198E+00
             7.1920000000000730E+00    4.4330000000000451E+00    2.0900000000000198E+00
             7.1920000000000730E+00    7.3890000000000793E+00    2.0900000000000198E+00
             1.0148000000000101E+01    1.4780000000000144E+00    2.0900000000000198E+00
             1.0148000000000101E+01    4.4330000000000451E+00    2.0900000000000198E+00
             1.0148000000000101E+01    7.3890000000000793E+00    2.0900000000000198E+00
             1.3104000000000125E+01    1.4780000000000144E+00    2.0900000000000198E+00
             1.3104000000000125E+01    4.4330000000000451E+00    2.0900000000000198E+00
             1.3104000000000125E+01    7.3890000000000793E+00    2.0900000000000198E+00
             0.0000000000000000E+00    0.0000000000000000E+00    4.1800000000000397E+00
             0.0000000000000000E+00    2.9550000000000289E+00    4.1800000000000397E+00
             0.0000000000000000E+00    5.9110000000000582E+00    4.1800000000000397E+00
             2.9560000000000288E+00    0.0000000000000000E+00    4.1800000000000397E+00
             2.9560000000000288E+00    2.9550000000000289E+00    4.1800000000000397E+00
             2.9560000000000288E+00    5.9110000000000582E+00    4.1800000000000397E+00
             5.9120000000000577E+00    0.0000000000000000E+00    4.1800000000000397E+00
             5.9120000000000577E+00    2.9550000000000289E+00    4.1800000000000397E+00
             5.9120000000000577E+00    5.9110000000000582E+00    4.1800000000000397E+00
             8.6700000000000923E+00    0.0000000000000000E+00    4.1800000000000397E+00
             8.6700000000000923E+00    2.9550000000000289E+00    4.1800000000000397E+00
             8.6700000000000923E+00    5.9110000000000582E+00    4.1800000000000397E+00
             1.1626000000000117E+01    0.0000000000000000E+00    4.1800000000000397E+00
             1.1626000000000117E+01    2.9550000000000289E+00    4.1800000000000397E+00
             1.1626000000000117E+01    5.9110000000000582E+00    4.1800000000000397E+00
             1.4780000000000144E+00    1.4780000000000144E+00    6.2700000000000617E+00
             1.4780000000000144E+00    4.4330000000000451E+00    6.2700000000000617E+00
             1.4780000000000144E+00    7.3890000000000793E+00    6.2700000000000617E+00
             4.4340000000000446E+00    1.4780000000000144E+00    6.2700000000000617E+00
             4.4340000000000446E+00    4.4330000000000451E+00    6.2700000000000617E+00
             4.4340000000000446E+00    7.3890000000000793E+00    6.2700000000000617E+00
             7.1920000000000730E+00    1.4780000000000144E+00    6.2700000000000617E+00
             7.1920000000000730E+00    4.4330000000000451E+00    6.2700000000000617E+00
             7.1920000000000730E+00    7.3890000000000793E+00    6.2700000000000617E+00
             1.0148000000000101E+01    1.4780000000000144E+00    6.2700000000000617E+00
             1.0148000000000101E+01    4.4330000000000451E+00    6.2700000000000617E+00
             1.0148000000000101E+01    7.3890000000000793E+00    6.2700000000000617E+00
             1.3104000000000125E+01    1.4780000000000144E+00    6.2700000000000617E+00
             1.3104000000000125E+01    4.4330000000000451E+00    6.2700000000000617E+00
             1.3104000000000125E+01    7.3890000000000793E+00    6.2700000000000617E+00
             0.0000000000000000E+00    0.0000000000000000E+00    8.3600000000000794E+00
             0.0000000000000000E+00    2.9550000000000289E+00    8.3600000000000794E+00
             0.0000000000000000E+00    5.9110000000000582E+00    8.3600000000000794E+00
             2.9560000000000288E+00    0.0000000000000000E+00    8.3600000000000794E+00
             2.9560000000000288E+00    2.9550000000000289E+00    8.3600000000000794E+00
             2.9560000000000288E+00    5.9110000000000582E+00    8.3600000000000794E+00
             5.9120000000000577E+00    0.0000000000000000E+00    8.3600000000000794E+00
             5.9120000000000577E+00    2.9550000000000289E+00    8.3600000000000794E+00
             5.9120000000000577E+00    5.9110000000000582E+00    8.3600000000000794E+00
             8.6700000000000923E+00    0.0000000000000000E+00    8.3600000000000794E+00
             8.6700000000000923E+00    2.9550000000000289E+00    8.3600000000000794E+00
             8.6700000000000923E+00    5.9110000000000582E+00    8.3600000000000794E+00
             1.1626000000000117E+01    0.0000000000000000E+00    8.3600000000000794E+00
             1.1626000000000117E+01    2.9550000000000289E+00    8.3600000000000794E+00
             1.1626000000000117E+01    5.9110000000000582E+00    8.3600000000000794E+00
             1.4780000000000144E+00    1.4780000000000144E+00    1.0450000000000104E+01
             1.4780000000000144E+00    4.4330000000000451E+00    1.0450000000000104E+01
             1.4780000000000144E+00    7.3890000000000793E+00    1.0450000000000104E+01
             4.4340000000000446E+00    1.4780000000000144E+00    1.0450000000000104E+01
             4.4340000000000446E+00    4.4330000000000451E+00    1.0450000000000104E+01
             4.4340000000000446E+00    7.3890000000000793E+00    1.0450000000000104E+01
             7.1920000000000730E+00    1.4780000000000144E+00    1.0450000000000104E+01
             7.1920000000000730E+00    4.4330000000000451E+00    1.0450000000000104E+01
             7.1920000000000730E+00    7.3890000000000793E+00    1.0450000000000104E+01
             1.0148000000000101E+01    1.4780000000000144E+00    1.0450000000000104E+01
             1.0148000000000101E+01    4.4330000000000451E+00    1.0450000000000104E+01
             1.0148000000000101E+01    7.3890000000000793E+00    1.0450000000000104E+01
             1.3104000000000125E+01    1.4780000000000144E+00    1.0450000000000104E+01
             1.3104000000000125E+01    4.4330000000000451E+00    1.0450000000000104E+01
             1.3104000000000125E+01    7.3890000000000793E+00    1.0450000000000104E+01
             4.8554000000000519E+00    5.9119000000000597E+00    1.2031800000000114E+01
             9.5280000000000999E+00    5.9137000000000572E+00    1.2034000000000129E+01
             7.1920000000000730E+00    5.9340000000000606E+00    1.2040000000000116E+01
             4.0750319168000404E+00    5.9049488170000588E+00    1.2696844061800121E+01
             1.0293988349500099E+01    5.9062142779000579E+00    1.2716532694500129E+01
             6.0099999686000647E+00    5.9120523853000613E+00    1.2765819797400122E+01
             8.3750478948000850E+00    5.9129627335000556E+00    1.2760746495900127E+01
             8.4047327065000825E+00    5.8893877816000586E+00    1.4094060897200130E+01
             5.9788500869000609E+00    5.8882515165000555E+00    1.4094239568500139E+01
             7.1943473363000709E+00    5.8799164377000581E+00    1.4701118490300148E+01
             7.1912293097000708E+00    5.8521058221000581E+00    1.6050622658200172E+01
             6.3086348447000642E+00    5.8615539361000586E+00    1.6548439365000178E+01
             8.0709262665000807E+00    5.8621389354000595E+00    1.6553588809700155E+01
             7.3120000000000696E+00    5.9340000000000606E+00    2.1043000000000198E+01
             5.8130000000000583E+00    7.4340000000000783E+00    2.2992000000000235E+01
             8.8130000000000805E+00    4.4340000000000446E+00    2.2992000000000235E+01
             5.8130000000000583E+00    4.4330000000000451E+00    2.2992000000000235E+01
             8.8130000000000805E+00    7.4340000000000783E+00    2.2992000000000235E+01
             1.4780000000000144E+00    1.4780000000000144E+00    2.5082000000000225E+01
             1.4780000000000144E+00    4.4330000000000451E+00    2.5082000000000225E+01
             1.4780000000000144E+00    7.3890000000000793E+00    2.5082000000000225E+01
             4.4340000000000446E+00    1.4780000000000144E+00    2.5082000000000225E+01
             4.4340000000000446E+00    4.4330000000000451E+00    2.5082000000000225E+01
             4.4340000000000446E+00    7.3890000000000793E+00    2.5082000000000225E+01
             7.1920000000000730E+00    1.4780000000000144E+00    2.5082000000000225E+01
             7.1920000000000730E+00    4.4330000000000451E+00    2.5082000000000225E+01
             7.1920000000000730E+00    7.3890000000000793E+00    2.5082000000000225E+01
             1.0148000000000101E+01    1.4780000000000144E+00    2.5082000000000225E+01
             1.0148000000000101E+01    4.4330000000000451E+00    2.5082000000000225E+01
             1.0148000000000101E+01    7.3890000000000793E+00    2.5082000000000225E+01
             1.3104000000000125E+01    1.4780000000000144E+00    2.5082000000000225E+01
             1.3104000000000125E+01    4.4330000000000451E+00    2.5082000000000225E+01
             1.3104000000000125E+01    7.3890000000000793E+00    2.5082000000000225E+01
             0.0000000000000000E+00    0.0000000000000000E+00    2.7172000000000263E+01
             0.0000000000000000E+00    2.9550000000000289E+00    2.7172000000000263E+01
             0.0000000000000000E+00    5.9110000000000582E+00    2.7172000000000263E+01
             2.9560000000000288E+00    0.0000000000000000E+00    2.7172000000000263E+01
             2.9560000000000288E+00    2.9550000000000289E+00    2.7172000000000263E+01
             2.9560000000000288E+00    5.9110000000000582E+00    2.7172000000000263E+01
             5.9120000000000577E+00    0.0000000000000000E+00    2.7172000000000263E+01
             5.9120000000000577E+00    2.9550000000000289E+00    2.7172000000000263E+01
             5.9120000000000577E+00    5.9110000000000582E+00    2.7172000000000263E+01
             8.6700000000000923E+00    0.0000000000000000E+00    2.7172000000000263E+01
             8.6700000000000923E+00    2.9550000000000289E+00    2.7172000000000263E+01
             8.6700000000000923E+00    5.9110000000000582E+00    2.7172000000000263E+01
             1.1626000000000117E+01    0.0000000000000000E+00    2.7172000000000263E+01
             1.1626000000000117E+01    2.9550000000000289E+00    2.7172000000000263E+01
             1.1626000000000117E+01    5.9110000000000582E+00    2.7172000000000263E+01
             1.4780000000000144E+00    1.4780000000000144E+00    2.9262000000000285E+01
             1.4780000000000144E+00    4.4330000000000451E+00    2.9262000000000285E+01
             1.4780000000000144E+00    7.3890000000000793E+00    2.9262000000000285E+01
             4.4340000000000446E+00    1.4780000000000144E+00    2.9262000000000285E+01
             4.4340000000000446E+00    4.4330000000000451E+00    2.9262000000000285E+01
             4.4340000000000446E+00    7.3890000000000793E+00    2.9262000000000285E+01
             7.1920000000000730E+00    1.4780000000000144E+00    2.9262000000000285E+01
             7.1920000000000730E+00    4.4330000000000451E+00    2.9262000000000285E+01
             7.1920000000000730E+00    7.3890000000000793E+00    2.9262000000000285E+01
             1.0148000000000101E+01    1.4780000000000144E+00    2.9262000000000285E+01
             1.0148000000000101E+01    4.4330000000000451E+00    2.9262000000000285E+01
             1.0148000000000101E+01    7.3890000000000793E+00    2.9262000000000285E+01
             1.3104000000000125E+01    1.4780000000000144E+00    2.9262000000000285E+01
             1.3104000000000125E+01    4.4330000000000451E+00    2.9262000000000285E+01
             1.3104000000000125E+01    7.3890000000000793E+00    2.9262000000000285E+01
             0.0000000000000000E+00    0.0000000000000000E+00    3.1352000000000302E+01
             0.0000000000000000E+00    2.9550000000000289E+00    3.1352000000000302E+01
             0.0000000000000000E+00    5.9110000000000582E+00    3.1352000000000302E+01
             2.9560000000000288E+00    0.0000000000000000E+00    3.1352000000000302E+01
             2.9560000000000288E+00    2.9550000000000289E+00    3.1352000000000302E+01
             2.9560000000000288E+00    5.9110000000000582E+00    3.1352000000000302E+01
             5.9120000000000577E+00    0.0000000000000000E+00    3.1352000000000302E+01
             5.9120000000000577E+00    2.9550000000000289E+00    3.1352000000000302E+01
             5.9120000000000577E+00    5.9110000000000582E+00    3.1352000000000302E+01
             8.6700000000000923E+00    0.0000000000000000E+00    3.1352000000000302E+01
             8.6700000000000923E+00    2.9550000000000289E+00    3.1352000000000302E+01
             8.6700000000000923E+00    5.9110000000000582E+00    3.1352000000000302E+01
             1.1626000000000117E+01    0.0000000000000000E+00    3.1352000000000302E+01
             1.1626000000000117E+01    2.9550000000000289E+00    3.1352000000000302E+01
             1.1626000000000117E+01    5.9110000000000582E+00    3.1352000000000302E+01
             1.4780000000000144E+00    1.4780000000000144E+00    3.3442000000000348E+01
             1.4780000000000144E+00    4.4330000000000451E+00    3.3442000000000348E+01
             1.4780000000000144E+00    7.3890000000000793E+00    3.3442000000000348E+01
             4.4340000000000446E+00    1.4780000000000144E+00    3.3442000000000348E+01
             4.4340000000000446E+00    4.4330000000000451E+00    3.3442000000000348E+01
             4.4340000000000446E+00    7.3890000000000793E+00    3.3442000000000348E+01
             7.1920000000000730E+00    1.4780000000000144E+00    3.3442000000000348E+01
             7.1920000000000730E+00    4.4330000000000451E+00    3.3442000000000348E+01
             7.1920000000000730E+00    7.3890000000000793E+00    3.3442000000000348E+01
             1.0148000000000101E+01    1.4780000000000144E+00    3.3442000000000348E+01
             1.0148000000000101E+01    4.4330000000000451E+00    3.3442000000000348E+01
             1.0148000000000101E+01    7.3890000000000793E+00    3.3442000000000348E+01
             1.3104000000000125E+01    1.4780000000000144E+00    3.3442000000000348E+01
             1.3104000000000125E+01    4.4330000000000451E+00    3.3442000000000348E+01
             1.3104000000000125E+01    7.3890000000000793E+00    3.3442000000000348E+01
       &END COORD
       &VELOCITY
             0.0000000000000000E+00    0.0000000000000000E+00    0.0000000000000000E+00
             0.0000000000000000E+00    0.0000000000000000E+00    0.0000000000000000E+00
             0.0000000000000000E+00    0.0000000000000000E+00    0.0000000000000000E+00
             0.0000000000000000E+00    0.0000000000000000E+00    0.0000000000000000E+00
             0.0000000000000000E+00    0.0000000000000000E+00    0.0000000000000000E+00
             0.0000000000000000E+00    0.0000000000000000E+00    0.0000000000000000E+00
             0.0000000000000000E+00    0.0000000000000000E+00    0.0000000000000000E+00
             0.0000000000000000E+00    0.0000000000000000E+00    0.0000000000000000E+00
             0.0000000000000000E+00    0.0000000000000000E+00    0.0000000000000000E+00
             0.0000000000000000E+00    0.0000000000000000E+00    0.0000000000000000E+00
             0.0000000000000000E+00    0.0000000000000000E+00    0.0000000000000000E+00
             0.0000000000000000E+00    0.0000000000000000E+00    0.0000000000000000E+00
             0.0000000000000000E+00    0.0000000000000000E+00    0.0000000000000000E+00
             0.0000000000000000E+00    0.0000000000000000E+00    0.0000000000000000E+00
             0.0000000000000000E+00    0.0000000000000000E+00    0.0000000000000000E+00
             0.0000000000000000E+00    0.0000000000000000E+00    0.0000000000000000E+00
             0.0000000000000000E+00    0.0000000000000000E+00    0.0000000000000000E+00
             0.0000000000000000E+00    0.0000000000000000E+00    0.0000000000000000E+00
             0.0000000000000000E+00    0.0000000000000000E+00    0.0000000000000000E+00
             0.0000000000000000E+00    0.0000000000000000E+00    0.0000000000000000E+00
             0.0000000000000000E+00    0.0000000000000000E+00    0.0000000000000000E+00
             0.0000000000000000E+00    0.0000000000000000E+00    0.0000000000000000E+00
             0.0000000000000000E+00    0.0000000000000000E+00    0.0000000000000000E+00
             0.0000000000000000E+00    0.0000000000000000E+00    0.0000000000000000E+00
             0.0000000000000000E+00    0.0000000000000000E+00    0.0000000000000000E+00
             0.0000000000000000E+00    0.0000000000000000E+00    0.0000000000000000E+00
             0.0000000000000000E+00    0.0000000000000000E+00    0.0000000000000000E+00
             0.0000000000000000E+00    0.0000000000000000E+00    0.0000000000000000E+00
             0.0000000000000000E+00    0.0000000000000000E+00    0.0000000000000000E+00
             0.0000000000000000E+00    0.0000000000000000E+00    0.0000000000000000E+00
             0.0000000000000000E+00    0.0000000000000000E+00    0.0000000000000000E+00
             0.0000000000000000E+00    0.0000000000000000E+00    0.0000000000000000E+00
             0.0000000000000000E+00    0.0000000000000000E+00    0.0000000000000000E+00
             0.0000000000000000E+00    0.0000000000000000E+00    0.0000000000000000E+00
             0.0000000000000000E+00    0.0000000000000000E+00    0.0000000000000000E+00
             0.0000000000000000E+00    0.0000000000000000E+00    0.0000000000000000E+00
             0.0000000000000000E+00    0.0000000000000000E+00    0.0000000000000000E+00
             0.0000000000000000E+00    0.0000000000000000E+00    0.0000000000000000E+00
             0.0000000000000000E+00    0.0000000000000000E+00    0.0000000000000000E+00
             0.0000000000000000E+00    0.0000000000000000E+00    0.0000000000000000E+00
             0.0000000000000000E+00    0.0000000000000000E+00    0.0000000000000000E+00
             0.0000000000000000E+00    0.0000000000000000E+00    0.0000000000000000E+00
             0.0000000000000000E+00    0.0000000000000000E+00    0.0000000000000000E+00
             0.0000000000000000E+00    0.0000000000000000E+00    0.0000000000000000E+00
             0.0000000000000000E+00    0.0000000000000000E+00    0.0000000000000000E+00
             0.0000000000000000E+00    0.0000000000000000E+00    0.0000000000000000E+00
             0.0000000000000000E+00    0.0000000000000000E+00    0.0000000000000000E+00
             0.0000000000000000E+00    0.0000000000000000E+00    0.0000000000000000E+00
             0.0000000000000000E+00    0.0000000000000000E+00    0.0000000000000000E+00
             0.0000000000000000E+00    0.0000000000000000E+00    0.0000000000000000E+00
             0.0000000000000000E+00    0.0000000000000000E+00    0.0000000000000000E+00
             0.0000000000000000E+00    0.0000000000000000E+00    0.0000000000000000E+00
             0.0000000000000000E+00    0.0000000000000000E+00    0.0000000000000000E+00
             0.0000000000000000E+00    0.0000000000000000E+00    0.0000000000000000E+00
             0.0000000000000000E+00    0.0000000000000000E+00    0.0000000000000000E+00
             0.0000000000000000E+00    0.0000000000000000E+00    0.0000000000000000E+00
             0.0000000000000000E+00    0.0000000000000000E+00    0.0000000000000000E+00
             0.0000000000000000E+00    0.0000000000000000E+00    0.0000000000000000E+00
             0.0000000000000000E+00    0.0000000000000000E+00    0.0000000000000000E+00
             0.0000000000000000E+00    0.0000000000000000E+00    0.0000000000000000E+00
             0.0000000000000000E+00    0.0000000000000000E+00    0.0000000000000000E+00
             0.0000000000000000E+00    0.0000000000000000E+00    0.0000000000000000E+00
             0.0000000000000000E+00    0.0000000000000000E+00    0.0000000000000000E+00
             0.0000000000000000E+00    0.0000000000000000E+00    0.0000000000000000E+00
             0.0000000000000000E+00    0.0000000000000000E+00    0.0000000000000000E+00
             0.0000000000000000E+00    0.0000000000000000E+00    0.0000000000000000E+00
             0.0000000000000000E+00    0.0000000000000000E+00    0.0000000000000000E+00
             0.0000000000000000E+00    0.0000000000000000E+00    0.0000000000000000E+00
             0.0000000000000000E+00    0.0000000000000000E+00    0.0000000000000000E+00
             0.0000000000000000E+00    0.0000000000000000E+00    0.0000000000000000E+00
             0.0000000000000000E+00    0.0000000000000000E+00    0.0000000000000000E+00
             0.0000000000000000E+00    0.0000000000000000E+00    0.0000000000000000E+00
             0.0000000000000000E+00    0.0000000000000000E+00    0.0000000000000000E+00
             0.0000000000000000E+00    0.0000000000000000E+00    0.0000000000000000E+00
             0.0000000000000000E+00    0.0000000000000000E+00    0.0000000000000000E+00
             0.0000000000000000E+00    0.0000000000000000E+00    0.0000000000000000E+00
             0.0000000000000000E+00    0.0000000000000000E+00    0.0000000000000000E+00
             0.0000000000000000E+00    0.0000000000000000E+00    0.0000000000000000E+00
             0.0000000000000000E+00    0.0000000000000000E+00    0.0000000000000000E+00
             0.0000000000000000E+00    0.0000000000000000E+00    0.0000000000000000E+00
             0.0000000000000000E+00    0.0000000000000000E+00    0.0000000000000000E+00
             0.0000000000000000E+00    0.0000000000000000E+00    0.0000000000000000E+00
             0.0000000000000000E+00    0.0000000000000000E+00    0.0000000000000000E+00
             0.0000000000000000E+00    0.0000000000000000E+00    0.0000000000000000E+00
             0.0000000000000000E+00    0.0000000000000000E+00    0.0000000000000000E+00
             0.0000000000000000E+00    0.0000000000000000E+00    0.0000000000000000E+00
             0.0000000000000000E+00    0.0000000000000000E+00    0.0000000000000000E+00
             0.0000000000000000E+00    0.0000000000000000E+00    0.0000000000000000E+00
             0.0000000000000000E+00    0.0000000000000000E+00    0.0000000000000000E+00
             0.0000000000000000E+00    0.0000000000000000E+00    0.0000000000000000E+00
             0.0000000000000000E+00    0.0000000000000000E+00    0.0000000000000000E+00
             0.0000000000000000E+00    0.0000000000000000E+00    0.0000000000000000E+00
             0.0000000000000000E+00    0.0000000000000000E+00    0.0000000000000000E+00
             0.0000000000000000E+00    0.0000000000000000E+00    0.0000000000000000E+00
             0.0000000000000000E+00    0.0000000000000000E+00    0.0000000000000000E+00
             0.0000000000000000E+00    0.0000000000000000E+00    0.0000000000000000E+00
             0.0000000000000000E+00    0.0000000000000000E+00    0.0000000000000000E+00
             0.0000000000000000E+00    0.0000000000000000E+00    0.0000000000000000E+00
             0.0000000000000000E+00    0.0000000000000000E+00    0.0000000000000000E+00
             0.0000000000000000E+00    0.0000000000000000E+00    0.0000000000000000E+00
             0.0000000000000000E+00    0.0000000000000000E+00    0.0000000000000000E+00
             0.0000000000000000E+00    0.0000000000000000E+00    0.0000000000000000E+00
             0.0000000000000000E+00    0.0000000000000000E+00    0.0000000000000000E+00
             0.0000000000000000E+00    0.0000000000000000E+00    0.0000000000000000E+00
             0.0000000000000000E+00    0.0000000000000000E+00    0.0000000000000000E+00
             0.0000000000000000E+00    0.0000000000000000E+00    0.0000000000000000E+00
             0.0000000000000000E+00    0.0000000000000000E+00    0.0000000000000000E+00
             0.0000000000000000E+00    0.0000000000000000E+00    0.0000000000000000E+00
             0.0000000000000000E+00    0.0000000000000000E+00    0.0000000000000000E+00
             0.0000000000000000E+00    0.0000000000000000E+00    0.0000000000000000E+00
             0.0000000000000000E+00    0.0000000000000000E+00    0.0000000000000000E+00
             0.0000000000000000E+00    0.0000000000000000E+00    0.0000000000000000E+00
             0.0000000000000000E+00    0.0000000000000000E+00    0.0000000000000000E+00
             0.0000000000000000E+00    0.0000000000000000E+00    0.0000000000000000E+00
             0.0000000000000000E+00    0.0000000000000000E+00    0.0000000000000000E+00
             0.0000000000000000E+00    0.0000000000000000E+00    0.0000000000000000E+00
             0.0000000000000000E+00    0.0000000000000000E+00    0.0000000000000000E+00
             0.0000000000000000E+00    0.0000000000000000E+00    0.0000000000000000E+00
             0.0000000000000000E+00    0.0000000000000000E+00    0.0000000000000000E+00
             0.0000000000000000E+00    0.0000000000000000E+00    0.0000000000000000E+00
             0.0000000000000000E+00    0.0000000000000000E+00    0.0000000000000000E+00
             0.0000000000000000E+00    0.0000000000000000E+00    0.0000000000000000E+00
             0.0000000000000000E+00    0.0000000000000000E+00    0.0000000000000000E+00
             0.0000000000000000E+00    0.0000000000000000E+00    0.0000000000000000E+00
             0.0000000000000000E+00    0.0000000000000000E+00    0.0000000000000000E+00
             0.0000000000000000E+00    0.0000000000000000E+00    0.0000000000000000E+00
             0.0000000000000000E+00    0.0000000000000000E+00    0.0000000000000000E+00
             0.0000000000000000E+00    0.0000000000000000E+00    0.0000000000000000E+00
             0.0000000000000000E+00    0.0000000000000000E+00    0.0000000000000000E+00
             0.0000000000000000E+00    0.0000000000000000E+00    0.0000000000000000E+00
             0.0000000000000000E+00    0.0000000000000000E+00    0.0000000000000000E+00
             0.0000000000000000E+00    0.0000000000000000E+00    0.0000000000000000E+00
             0.0000000000000000E+00    0.0000000000000000E+00    0.0000000000000000E+00
             0.0000000000000000E+00    0.0000000000000000E+00    0.0000000000000000E+00
             0.0000000000000000E+00    0.0000000000000000E+00    0.0000000000000000E+00
             0.0000000000000000E+00    0.0000000000000000E+00    0.0000000000000000E+00
             0.0000000000000000E+00    0.0000000000000000E+00    0.0000000000000000E+00
             0.0000000000000000E+00    0.0000000000000000E+00    0.0000000000000000E+00
             0.0000000000000000E+00    0.0000000000000000E+00    0.0000000000000000E+00
             0.0000000000000000E+00    0.0000000000000000E+00    0.0000000000000000E+00
             0.0000000000000000E+00    0.0000000000000000E+00    0.0000000000000000E+00
             0.0000000000000000E+00    0.0000000000000000E+00    0.0000000000000000E+00
             0.0000000000000000E+00    0.0000000000000000E+00    0.0000000000000000E+00
             0.0000000000000000E+00    0.0000000000000000E+00    0.0000000000000000E+00
             0.0000000000000000E+00    0.0000000000000000E+00    0.0000000000000000E+00