         0      -5729.810926761      -5729.783192272      -5729.731304778      -5729.761165975      -5729.782607823          1.408655960          1.408655960          0.961545083          0.961545083
         1      -5729.810926761      -5729.914338381      -5729.857289288      -5729.888813754      -5729.782607823          1.734343074          1.348995202          1.044901164          1.393220180
         2      -5729.810926760      -5729.936831639      -5729.885425090      -5729.912069307      -5729.782607823          1.730548450          1.357687032          1.093611133          1.399500844
         3      -5729.810926761      -5729.949263570      -5729.895836397      -5729.922545029      -5729.782607823          1.723592427          1.414838588          1.200683579          1.400365318
         4      -5729.810926761      -5729.957521232      -5729.902309243      -5729.931205596      -5729.782607823          1.719617381          1.453618300          1.260465160          1.404911238
         5      -5729.810926761      -5729.964860736      -5729.908566531      -5729.937751341      -5729.782607823          1.718695451          1.511955513          1.349513285          1.415114664
         6      -5729.810926760      -5729.970066804      -5729.912864015      -5729.943887568      -5729.782607823          1.720045829          1.551906779          1.402536689          1.425696935
         7      -5729.810926761      -5729.972725683      -5729.914426630      -5729.948466570      -5729.782607823          1.721361051          1.595954957          1.410563438          1.430916543
         8      -5729.810926761      -5730.005243514      -5729.939996263      -5729.962626399      -5729.782607824          1.961201902          2.462075262          1.656893205          1.729011556
         9      -5729.810926761      -5730.006932313      -5729.941746530      -5729.976435938      -5729.782607823          1.985026389          2.445239479          1.664742882          1.737758357
        10      -5729.810926761      -5730.008450610      -5729.942877101      -5729.980575258      -5729.782607823          2.012973827          2.424464183          1.689444916          1.737467845
        11      -5729.810926760      -5730.011539885      -5729.945066724      -5729.979564515      -5729.782607823          2.072346777          2.383399437          1.745597793          1.736770942
        12      -5729.810926761      -5730.012362917      -5729.945848940      -5729.982488720      -5729.782607823          2.086695897          2.377435105          1.759427037          1.738738020
        13      -5729.810926760      -5730.030205852      -5729.961216812      -5729.983317825      -5729.782607823          2.511833723          2.238872771          2.175782871          1.821234518
        14      -5729.810926761      -5730.030622611      -5729.962405210      -5729.988579330      -5729.782607823          2.503697839          2.258985403          2.160091148          1.837219598
        15      -5729.810926760      -5730.031585620      -5729.963845113      -5729.989488958      -5729.782607824          2.483693985          2.318530464          2.130893345          1.876517957
        16      -5729.810926761      -5730.031922810      -5729.964454501      -5729.991168112      -5729.782607823          2.478965862          2.341631883          2.119866665          1.889573120
        17      -5729.810926761      -5730.032292267      -5729.965094798      -5729.991727369      -5729.782607823          2.477614158          2.363521473          2.114584112          1.899709184
        18      -5729.810926760      -5730.033576480      -5729.967547474      -5729.991890813      -5729.782607823          2.468656926          2.450622169          2.091863562          1.946115958
        19      -5729.810926760      -5730.033838174      -5729.968078477      -5729.993950492      -5729.782607823          2.470340697          2.463943733          2.088735763          1.952393378
        20      -5729.810926760      -5730.035794432      -5729.971858942      -5729.993219674      -5729.782607823          2.488597710          2.560880843          2.091806575          1.995553687
        21      -5729.810926761      -5730.036061237      -5729.972379745      -5729.995864126      -5729.782607823          2.493224020          2.569769846          2.092391703          1.999943855
        22      -5729.810926761      -5730.037753807      -5729.975511183      -5729.994838301      -5729.782607823          2.525227688          2.624880577          2.119752264          2.023916707
        23      -5729.810926760      -5730.038037881      -5729.976052816      -5729.996995371      -5729.782607823          2.531222876          2.634061789          2.121645532          2.028515751
        24      -5729.810926761      -5730.038492470      -5729.976922228      -5729.997321951      -5729.782607823          2.541117355          2.648026211          2.129651259          2.035143973
        25      -5729.810926760      -5730.040539565      -5729.980892553      -5729.995861433      -5729.782607823          2.588330853          2.711026931          2.175737379          2.065558149
        26      -5729.810926760      -5730.040783049      -5729.981415331      -5729.998698535      -5729.782607823          2.594365843          2.719667267          2.177691003          2.070615893
        27      -5729.810926761      -5730.042495147      -5729.985024878      -5729.997495299      -5729.782607823          2.638511804          2.775840768          2.222253362          2.100622088
        28      -5729.810926760      -5730.042742892      -5729.985605410      -5730.000007122      -5729.782607823          2.645195991          2.785511447          2.225743180          2.106420780
        29      -5729.810926760      -5730.043867665      -5729.988207965      -5729.999296020      -5729.782607823          2.676481372          2.826354708          2.259705956          2.129191936
        30      -5729.810926761      -5730.044137050      -5729.988888693      -5730.001060229      -5729.782607823          2.684231674          2.837773030          2.264363117          2.135646566
        31      -5729.810926761      -5730.045138884      -5729.991394245      -5730.000458223      -5729.782607823          2.713708374          2.878380682          2.295705002          2.157557439
        32      -5729.810926761      -5730.045415525      -5729.992159701      -5730.002086345      -5729.782607823          2.722093801          2.891337835          2.301503053          2.164509297
        33      -5729.810926760      -5730.045975046      -5729.993690040      -5730.002571883      -5729.782607824          2.739295500          2.916873224          2.318361143          2.177633755
        34      -5729.810926761      -5730.047106818      -5729.996916684      -5730.001618655      -5729.782607824          2.775125610          2.971346864          2.355372261          2.204065386
        35      -5729.810926761      -5730.047390227      -5729.997848821      -5730.003740529      -5729.782607823          2.784397436          2.987987122          2.359503136          2.211668787
        36      -5729.810926761      -5730.048553327      -5730.001609680      -5730.002459009      -5729.782607823          2.823218032          3.053230240          2.394705575          2.238976884
        37      -5729.810926761      -5730.048810401      -5730.002608685      -5730.005060634      -5729.782607823          2.832086711          3.070837347          2.395104014          2.245561736
        38      -5729.810926760      -5730.063748585      -5730.047907512      -5729.918206494      -5729.782607823          3.418907120          4.182837773          3.079472382          2.611998688
        39      -5729.810926761      -5730.064938192      -5730.049814800      -5729.818729670      -5729.782607823          3.477468025          4.178643208          3.092087386          2.977513366
        40      -5729.810926761      -5730.065987587      -5730.051979603      -5729.921701070      -5729.782607823          3.528871156          4.197815670          2.976902053          3.139433294
        41      -5729.810926760      -5730.067321276      -5730.047280174      -5729.998687947      -5729.782607823          3.594363365          4.232599487          2.905291656          3.255063325
        42      -5729.810926760      -5730.067986834      -5730.060995398      -5730.021907080      -5729.782607823          3.626868637          4.256354628          2.928932227          3.277020762
        43      -5729.810926760      -5730.069566215      -5730.063031186      -5730.026045827      -5729.782607823          3.704921753          4.309537838          3.054930948          3.272807942
        44      -5729.810926761      -5730.070286588      -5730.064757864      -5730.029206166      -5729.782607823          3.740363697          4.335569941          3.120150425          3.264835233
        45      -5729.810926761      -5730.071420169      -5730.066315396      -5730.028777041      -5729.782607823          3.796482304          4.373762171          3.231239389          3.244636098
        46      -5729.810926760      -5730.071842429      -5730.067480063      -5730.031302364      -5729.782607823          3.817310154          4.388768534          3.271473845          3.235678792
        47      -5729.810926761      -5730.086037144      -5730.086377391      -5730.005711749      -5729.782607823          4.607670247          4.972521975          4.959211986          2.853023302
        48      -5729.810926761      -5730.086444665      -5730.087954532      -5730.013465487      -5729.782607824          4.626147628          4.963237431          4.987007086          2.826832987
        49      -5729.810926760      -5730.086843006      -5730.088563296      -5730.016717094      -5729.782607823          4.643766327          4.954614000          5.023226190          2.791151798
        50      -5729.810926761      -5730.087604675      -5730.089265099      -5730.014645445      -5729.782607823          4.676784971          4.935309780          5.100670632          2.713069709
        51      -5729.810926761      -5730.087839628      -5730.089621446      -5730.016314125      -5729.782607824          4.686304059          4.927530371          5.122422817          2.686437234
        52      -5729.810926760      -5730.097344916      -5730.094186290      -5729.942019372      -5729.782607823          5.155798519          4.632928269          6.384481820          1.578652308
        53      -5729.810926761      -5730.096897423      -5730.094100939      -5729.951806815      -5729.782607823          5.121551650          4.591554221          6.213317018          1.626873754
        54      -5729.810926761      -5730.096431582      -5730.093343295      -5729.969444747      -5729.782607823          5.087127710          4.557375135          6.065641380          1.638009090
        55      -5729.810926760      -5730.095100247      -5730.090835329      -5729.967095496      -5729.782607823          4.993350226          4.477598271          5.757812668          1.586832479
        56      -5729.810926761      -5730.094778782      -5730.090458051      -5729.975356626      -5729.782607823          4.971582745          4.464171347          5.703573435          1.567435537
        57      -5729.810926761      -5730.084190777      -5730.072059922      -5729.821810045      -5729.782607823          4.361245819          4.188655060          4.727486270          0.795803847
        58      -5729.810926761      -5730.084031856      -5730.071777913      -5729.898990833      -5729.782607824          4.349760700          4.186800771          4.551713739          0.947267299
        59      -5729.810926761      -5730.083902280      -5730.071624120      -5729.913713529      -5729.782607823          4.340633249          4.186477287          4.573220507          0.893111886
        60      -5729.810926760      -5730.083765520      -5730.071323700      -5729.910508477      -5729.782607823          4.331148449          4.185684614          4.643325553          0.787761494
        61      -5729.810926760      -5730.083717944      -5730.071143155      -5729.904359653      -5729.782607823          4.327873284          4.184532581          4.684294058          0.714518972
        62      -5729.810926760      -5730.086466673      -5730.076471898      -5729.557785743      -5729.782607823          4.558122605          4.280053783          3.919336749          5.049985905
        63      -5729.810926760      -5730.086396661      -5730.081170131      -5729.761362826      -5729.782607823          4.544513357          4.291599369          3.709672664          5.090806575
        64      -5729.810926761      -5730.086300063      -5730.081911777      -5729.885633423      -5729.782607823          4.528070829          4.310539804          3.584362753          5.242078727
        65      -5729.810926761      -5730.086190321      -5730.082507853      -5729.936084638      -5729.782607823          4.510161965          4.336417836          3.517042013          5.380675532
        66      -5729.810926761      -5730.086080568      -5730.082948828      -5729.946112571      -5729.782607823          4.491175915          4.375622648          3.470640058          5.514321789
        67      -5729.810926760      -5730.086063023      -5730.083514215      -5729.965234965      -5729.782607823          4.484328375          4.397636972          3.453371164          5.580771442
        68      -5729.810926761      -5730.086043361      -5730.084002156      -5729.977560888      -5729.782607824          4.473819747          4.440805365          3.435413017          5.691291362
        69      -5729.810926761      -5730.086082347      -5730.084187309      -5729.982418309      -5729.782607823          4.472185997          4.462136656          3.432803567          5.732546311
        70      -5729.810926760      -5730.086550562      -5730.082686322      -5729.965107696      -5729.782607824          4.466623232          4.839043155          3.532172408          6.383846327
        71      -5729.810926761      -5730.086904559      -5730.082503474      -5729.988193988      -5729.782607823          4.485270989          4.867003893          3.560823746          6.446587588
        72      -5729.810926760      -5730.087366575      -5730.081777082      -5730.020979332      -5729.782607823          4.510011736          4.902766558          3.584048827          6.493366364
        73      -5729.810926761      -5730.088919643      -5730.076915170      -5730.022426181      -5729.782607823          4.596235261          5.032428400          3.695652863          6.602773445
        74      -5729.810926760      -5730.089325822      -5730.077825922      -5730.035009440      -5729.782607823          4.619471057          5.063691562          3.723670359          6.628457930
        75      -5729.810926761      -5730.089772619      -5730.077149158      -5730.039137565      -5729.782607823          4.645330497          5.098948268          3.757149683          6.651167943
        76      -5729.810926760      -5730.097185762      -5730.040410790      -5730.013680161      -5729.782607823          5.129620688          5.889109148          4.484625547          7.083785150
        77      -5729.810926761      -5730.097779096      -5730.048709489      -5730.058083664      -5729.782607823          5.170097880          5.923963527          4.528072547          7.121437250
        78      -5729.810926760      -5730.098578994      -5730.049573185      -5730.069738976      -5729.782607823          5.225380739          5.922477425          4.559557899          6.931610208
        79      -5729.810926760      -5730.098681466      -5730.050845475      -5730.074513400      -5729.782607823          5.232214921          5.913120837          4.561160050          6.908561083
        80      -5729.810926760      -5730.102417433      -5730.054317784      -5730.059078412      -5729.782607823          5.496821126          5.683833049          4.806927490          5.981362543
        81      -5729.810926760      -5730.102621777      -5730.056693573      -5730.073053499      -5729.782607824          5.506417202          5.712171190          4.841213603          5.922552191
        82      -5729.810926760      -5730.102814353      -5730.058098905      -5730.074315409      -5729.782607823          5.516280656          5.725583307          4.880856169          5.868915949
        83      -5729.810926760      -5730.105136874      -5730.072221436      -5730.055936660      -5729.782607823          5.652416565          5.912373871          5.527548063          5.220866733
        84      -5729.810926761      -5730.105336873      -5730.074134061      -5730.069633266      -5729.782607824          5.666219633          5.930294819          5.542735843          5.214476083
        85      -5729.810926761      -5730.106052930      -5730.079396908      -5730.066758946      -5729.782607823          5.717080894          5.990665482          5.633499397          5.161009299
        86      -5729.810926761      -5730.106376334      -5730.081852849      -5730.069455538      -5729.782607823          5.740566020          6.016763454          5.673542597          5.137989072
        87      -5729.810926760      -5730.108655612      -5730.093719683      -5730.059559735      -5729.782607823          5.910188018          6.167005593          5.986018991          4.953313060
        88      -5729.810926761      -5730.108861951      -5730.094856049      -5730.066458029      -5729.782607823          5.925484367          6.166922896          6.002087241          4.938678170
        89      -5729.810926760      -5730.109026709      -5730.095603169      -5730.066933978      -5729.782607823          5.937650322          6.167118784          6.019405410          4.922456754
        90      -5729.810926761      -5730.110945792      -5730.102882807      -5730.059584149      -5729.782607823          6.081558954          6.169678172          6.253157740          4.713210069
        91      -5729.810926760      -5730.111029188      -5730.103479631      -5730.062775805      -5729.782607823          6.086730330          6.162986758          6.259352415          4.694663166
        92      -5729.810926761      -5730.111130396      -5730.104163604      -5730.062622861      -5729.782607823          6.092821781          6.152955112          6.271522936          4.665933229
        93      -5729.810926760      -5730.111227259      -5730.104845430      -5730.062543148      -5729.782607823          6.098476641          6.141832139          6.284118846          4.635125964
        94      -5729.810926760      -5730.111984777      -5730.110839780      -5730.050474131      -5729.782607823          6.139866016          6.013766249          6.435690742          4.278326716
        95      -5729.810926760      -5730.111929727      -5730.111082379      -5730.055116706      -5729.782607823          6.134436270          6.002428369          6.428597819          4.263384130
        96      -5729.810926760      -5730.111866737      -5730.111249181      -5730.055327518      -5729.782607823          6.128326714          5.990267071          6.424852612          4.244060959
        97      -5729.810926760      -5730.110463612      -5730.113308328      -5730.037969111      -5729.782607823          6.002847405          5.760655070          6.375945812          3.860424978
        98      -5729.810926761      -5730.110162118      -5730.113599710      -5730.046449730      -5729.782607823          5.978084446          5.731295354          6.338662388          3.826758242
        99      -5729.810926761      -5730.109786793      -5730.113424787      -5730.044609718      -5729.782607823          5.947762406          5.698585690          6.317215072          3.768378127
       100      -5729.810926761      -5730.109562970      -5730.113731969      -5730.044766100      -5729.782607823          5.929851158          5.678431609          6.302155163          3.736142356
       101      -5729.810926761      -5730.108549222      -5730.112529799      -5730.037366569      -5729.782607824          5.850216097          5.590655586          6.248688412          3.581050891
       102      -5729.810926760      -5730.108359229      -5730.113457481      -5730.040591735      -5729.782607824          5.835520390          5.574806818          6.235069335          3.554751471
       103      -5729.810926760      -5730.108146940      -5730.113580658      -5730.040015142      -5729.782607823          5.819191618          5.556759954          6.223786948          3.522460730
       104      -5729.810926761      -5730.105481416      -5730.109994751      -5730.017800947      -5729.782607824          5.621410782          5.349728968          6.103655342          3.125995534
       105      -5729.810926761      -5730.105280446      -5730.111989071      -5730.029439000      -5729.782607823          5.606899313          5.333556608          6.080850857          3.104847218
       106      -5729.810926761      -5730.104714134      -5730.109850326      -5730.026289602      -5729.782607823          5.566351407          5.287770698          6.056735336          3.014676748
       107      -5729.810926760      -5730.104293490      -5730.111272717      -5730.024750796      -5729.782607824          5.536548894          5.254898733          6.036755466          2.951500581
       108      -5729.810926761      -5730.103736991      -5730.109976130      -5730.021228232      -5729.782607823          5.497546181          5.212827917          6.012443435          2.865369850
       109      -5729.810926761      -5730.103432141      -5730.109924927      -5730.021410310      -5729.782607824          5.476364202          5.188917535          5.998800745          2.818213126
       110      -5729.810926761      -5730.102791586      -5730.109884215      -5730.018514168      -5729.782607823          5.432211964          5.142144975          5.972221957          2.722050752
       111      -5729.810926761      -5730.102579218      -5730.109647525      -5730.017829565      -5729.782607823          5.417710453          5.126134449          5.964370569          2.687261504
       112      -5729.810926760      -5730.115898743      -5730.114846277      -5730.019024646      -5729.782607823          6.468390340          6.533341817          6.625656419          5.351218354
       113      -5729.810926761      -5730.115946727      -5730.117371183      -5730.070728135      -5729.782607823          6.471489442          6.527780069          6.585983984          5.370694154
       114      -5729.810926760      -5730.115990472      -5730.117683334      -5730.073010864      -5729.782607823          6.474394323          6.523193225          6.581859783          5.362983000
       115      -5729.810926760      -5730.116078641      -5730.118091714      -5730.073157360      -5729.782607823          6.480251500          6.513499807          6.578570897          5.340824319
       116      -5729.810926760      -5730.116109675      -5730.118297450      -5730.073431748      -5729.782607823          6.482137963          6.509143926          6.579270021          5.328742707
       117      -5729.810926761      -5730.116127289      -5730.118463386      -5730.073405920      -5729.782607823          6.482949951          6.505240092          6.581889329          5.316346884
       118      -5729.810926761      -5730.116169371      -5730.118831422      -5730.073205651      -5729.782607823          6.485003463          6.496362877          6.586835305          5.289215352
       119      -5729.810926760      -5730.116184253      -5730.118998137      -5730.073129774      -5729.782607823          6.485572096          6.492130987          6.588973844          5.276807861
       120      -5729.810926760      -5730.116524639      -5730.123488214      -5730.063194105      -5729.782607823          6.495405566          6.379671536          6.674631581          4.918638394
       121      -5729.810926761      -5730.116478803      -5730.123767693      -5730.065907534      -5729.782607823          6.490390312          6.372775521          6.677472439          4.902124874
       122      -5729.810926761      -5730.116352755      -5730.124135261      -5730.065286014      -5729.782607823          6.477190570          6.355168834          6.688134349          4.856275586
       123      -5729.810926761      -5730.116288426      -5730.124295467      -5730.065624538      -5729.782607823          6.470618270          6.345926443          6.690373659          4.834982129
       124      -5729.810926760      -5730.116154510      -5730.124599168      -5730.064527090      -5729.782607823          6.457099041          6.326935740          6.694367714          4.791504802
       125      -5729.810926760      -5730.116108315      -5730.124696725      -5730.065055060      -5729.782607823          6.452491104          6.320318489          6.694189279          4.777591344
       126      -5729.810926761      -5730.121663312      -5730.105248080      -5730.073904884      -5729.782607823          7.168416149          7.530964675          6.935718545          7.018865132
       127      -5729.810926761      -5730.122088300      -5730.104677886      -5730.082058769      -5729.782607823          7.204700452          7.556583061          7.013188835          6.992014928
       128      -5729.810926761      -5730.122323160      -5730.105936187      -5730.085667354      -5729.782607823          7.225947047          7.570525596          7.057635253          6.976166011
       129      -5729.810926760      -5730.122663173      -5730.105846843      -5730.087775558      -5729.782607823          7.257737726          7.589195078          7.123594144          6.951963207
       130      -5729.810926760      -5730.122791071      -5730.106400512      -5730.089340102      -5729.782607823          7.270003468          7.595697200          7.147551306          6.942734981
       131      -5729.810926761      -5730.124747937      -5730.105886810      -5730.090827833      -5729.782607823          7.472279659          7.696400382          7.553827179          6.795414970
       132      -5729.810926760      -5730.124839747      -5730.107193123      -5730.091563833      -5729.782607823          7.481944077          7.694478627          7.561952501          6.788941052
       133      -5729.810926761      -5730.125256071      -5730.107281001      -5730.091610568      -5729.782607823          7.525737961          7.686211695          7.602223275          6.755751200
       134      -5729.810926760      -5730.125330864      -5730.107942550      -5730.091778995      -5729.782607823          7.533053906          7.683724381          7.610954616          6.747137146
       135      -5729.810926760      -5730.125432855      -5730.108159287      -5730.091709309      -5729.782607823          7.542917898          7.680197240          7.623145778          6.734573447
       136      -5729.810926761      -5730.125961397      -5730.108558571      -5730.090856268      -5729.782607823          7.593450056          7.658821617          7.689257446          6.661680148
       137      -5729.810926761      -5730.125998683      -5730.109552870      -5730.091022913      -5729.782607823          7.596164828          7.654964299          7.694170797          6.652659860
       138      -5729.810926761      -5730.126269989      -5730.110226243      -5730.089974143      -5729.782607823          7.615424910          7.625505375          7.731469491          6.580545517
       139      -5729.810926760      -5730.126288190      -5730.111052000      -5730.090243433      -5729.782607823          7.615797833          7.620528222          7.733556438          6.571241890
       140      -5729.810926761      -5730.126412472      -5730.112065109      -5730.088806475      -5729.782607823          7.617005523          7.582849673          7.749596739          6.497057943
       141      -5729.810926761      -5730.126415121      -5730.112705138      -5730.089388272      -5729.782607823          7.615525973          7.577078206          7.749352803          6.487678746
       142      -5729.810926761      -5730.126420435      -5730.113898744      -5730.087759734      -5729.782607823          7.604402661          7.539489254          7.749235085          6.422503634
       143      -5729.810926761      -5730.126412174      -5730.114239371      -5730.088589177      -5729.782607823          7.601647126          7.533220463          7.747407813          6.412963526
       144      -5729.810926760      -5730.126374634      -5730.114628178      -5730.088397190      -5729.782607823          7.593716280          7.520495191          7.741334117          6.394460034
       145      -5729.810926761      -5730.126369566      -5730.114794427      -5730.088332221      -5729.782607823          7.591763593          7.515751777          7.740694254          6.386450245
       146      -5729.810926761      -5730.124372637      -5730.133447246      -5730.047223835      -5729.782607824          7.267144678          6.977516076          7.676733585          5.362654459
       147      -5729.810926760      -5730.124287464      -5730.135472745      -5730.073374018      -5729.782607823          7.255503713          6.962712011          7.645547319          5.359802585
       148      -5729.810926760      -5730.124134572      -5730.135748187      -5730.073954235      -5729.782607824          7.235058553          6.941104203          7.617777477          5.337476770
       149      -5729.810926761      -5730.123927573      -5730.136069680      -5730.072907224      -5729.782607823          7.208052409          6.913138823          7.583159048          5.307126199