 # Version information for this restart file 
 # current date 2024-01-12 16:33:58.757
 # current working dir /gpfs/home/cahart/transport/melamine/au_from-h2/ci-neb/ts1/dft_leads-sz_tip-dzvp_surf-dzvp_kpoints-2-4-20_replicas-5
 # Program compiled at                              Thu 21 Sep 19:20:17 BST 2023
 # Program compiled on                                           hx1-c12-login-1
 # Program compiled for                                                    local
 # Source code revision number                                       git:5518aa6
 &GLOBAL
   EXTENDED_FFT_LENGTHS  T
   PRINT_LEVEL  MEDIUM
   PROJECT_NAME 2_dft_wfn-r-0
   OUTPUT_FILE_NAME 2_dft_wfn-r-0.out
   RUN_TYPE  BAND
 &END GLOBAL
 &MOTION
   &BAND
     NPROC_REP  64
     BAND_TYPE  CI-NEB
     NUMBER_OF_REPLICA  5
     K_SPRING     5.0000000000000003E-02
     &CI_NEB
       NSTEPS_IT  5
     &END CI_NEB
     &OPTIMIZE_BAND
       OPT_TYPE  DIIS
       &DIIS
         MAX_STEPS  1000
       &END DIIS
     &END OPTIMIZE_BAND
     &REPLICA
       &COORD
             0.0000000000000000E+00    0.0000000000000000E+00    0.0000000000000000E+00
             0.0000000000000000E+00    2.9550000000000183E+00    0.0000000000000000E+00
             0.0000000000000000E+00    5.9110000000000369E+00    0.0000000000000000E+00
             2.9560000000000173E+00    0.0000000000000000E+00    0.0000000000000000E+00
             2.9560000000000173E+00    2.9550000000000183E+00    0.0000000000000000E+00
             2.9560000000000173E+00    5.9110000000000369E+00    0.0000000000000000E+00
             5.9120000000000346E+00    0.0000000000000000E+00    0.0000000000000000E+00
             5.9120000000000346E+00    2.9550000000000183E+00    0.0000000000000000E+00
             5.9120000000000346E+00    5.9110000000000369E+00    0.0000000000000000E+00
             8.6700000000000532E+00    0.0000000000000000E+00    0.0000000000000000E+00
             8.6700000000000532E+00    2.9550000000000183E+00    0.0000000000000000E+00
             8.6700000000000532E+00    5.9110000000000369E+00    0.0000000000000000E+00
             1.1626000000000074E+01    0.0000000000000000E+00    0.0000000000000000E+00
             1.1626000000000074E+01    2.9550000000000183E+00    0.0000000000000000E+00
             1.1626000000000074E+01    5.9110000000000369E+00    0.0000000000000000E+00
             1.4780000000000086E+00    1.4780000000000086E+00    2.0900000000000118E+00
             1.4780000000000086E+00    4.4330000000000283E+00    2.0900000000000118E+00
             1.4780000000000086E+00    7.3890000000000500E+00    2.0900000000000118E+00
             4.4340000000000250E+00    1.4780000000000086E+00    2.0900000000000118E+00
             4.4340000000000250E+00    4.4330000000000283E+00    2.0900000000000118E+00
             4.4340000000000250E+00    7.3890000000000500E+00    2.0900000000000118E+00
             7.1920000000000455E+00    1.4780000000000086E+00    2.0900000000000118E+00
             7.1920000000000455E+00    4.4330000000000283E+00    2.0900000000000118E+00
             7.1920000000000455E+00    7.3890000000000500E+00    2.0900000000000118E+00
             1.0148000000000060E+01    1.4780000000000086E+00    2.0900000000000118E+00
             1.0148000000000060E+01    4.4330000000000283E+00    2.0900000000000118E+00
             1.0148000000000060E+01    7.3890000000000500E+00    2.0900000000000118E+00
             1.3104000000000077E+01    1.4780000000000086E+00    2.0900000000000118E+00
             1.3104000000000077E+01    4.4330000000000283E+00    2.0900000000000118E+00
             1.3104000000000077E+01    7.3890000000000500E+00    2.0900000000000118E+00
             0.0000000000000000E+00    0.0000000000000000E+00    4.1800000000000237E+00
             0.0000000000000000E+00    2.9550000000000183E+00    4.1800000000000237E+00
             0.0000000000000000E+00    5.9110000000000369E+00    4.1800000000000237E+00
             2.9560000000000173E+00    0.0000000000000000E+00    4.1800000000000237E+00
             2.9560000000000173E+00    2.9550000000000183E+00    4.1800000000000237E+00
             2.9560000000000173E+00    5.9110000000000369E+00    4.1800000000000237E+00
             5.9120000000000346E+00    0.0000000000000000E+00    4.1800000000000237E+00
             5.9120000000000346E+00    2.9550000000000183E+00    4.1800000000000237E+00
             5.9120000000000346E+00    5.9110000000000369E+00    4.1800000000000237E+00
             8.6700000000000532E+00    0.0000000000000000E+00    4.1800000000000237E+00
             8.6700000000000532E+00    2.9550000000000183E+00    4.1800000000000237E+00
             8.6700000000000532E+00    5.9110000000000369E+00    4.1800000000000237E+00
             1.1626000000000074E+01    0.0000000000000000E+00    4.1800000000000237E+00
             1.1626000000000074E+01    2.9550000000000183E+00    4.1800000000000237E+00
             1.1626000000000074E+01    5.9110000000000369E+00    4.1800000000000237E+00
             1.4780000000000086E+00    1.4780000000000086E+00    6.2700000000000351E+00
             1.4780000000000086E+00    4.4330000000000283E+00    6.2700000000000351E+00
             1.4780000000000086E+00    7.3890000000000500E+00    6.2700000000000351E+00
             4.4340000000000250E+00    1.4780000000000086E+00    6.2700000000000351E+00
             4.4340000000000250E+00    4.4330000000000283E+00    6.2700000000000351E+00
             4.4340000000000250E+00    7.3890000000000500E+00    6.2700000000000351E+00
             7.1920000000000455E+00    1.4780000000000086E+00    6.2700000000000351E+00
             7.1920000000000455E+00    4.4330000000000283E+00    6.2700000000000351E+00
             7.1920000000000455E+00    7.3890000000000500E+00    6.2700000000000351E+00
             1.0148000000000060E+01    1.4780000000000086E+00    6.2700000000000351E+00
             1.0148000000000060E+01    4.4330000000000283E+00    6.2700000000000351E+00
             1.0148000000000060E+01    7.3890000000000500E+00    6.2700000000000351E+00
             1.3104000000000077E+01    1.4780000000000086E+00    6.2700000000000351E+00
             1.3104000000000077E+01    4.4330000000000283E+00    6.2700000000000351E+00
             1.3104000000000077E+01    7.3890000000000500E+00    6.2700000000000351E+00
             0.0000000000000000E+00    0.0000000000000000E+00    8.3600000000000474E+00
             0.0000000000000000E+00    2.9550000000000183E+00    8.3600000000000474E+00
             0.0000000000000000E+00    5.9110000000000369E+00    8.3600000000000474E+00
             2.9560000000000173E+00    0.0000000000000000E+00    8.3600000000000474E+00
             2.9560000000000173E+00    2.9550000000000183E+00    8.3600000000000474E+00
             2.9560000000000173E+00    5.9110000000000369E+00    8.3600000000000474E+00
             5.9120000000000346E+00    0.0000000000000000E+00    8.3600000000000474E+00
             5.9120000000000346E+00    2.9550000000000183E+00    8.3600000000000474E+00
             5.9120000000000346E+00    5.9110000000000369E+00    8.3600000000000474E+00
             8.6700000000000532E+00    0.0000000000000000E+00    8.3600000000000474E+00
             8.6700000000000532E+00    2.9550000000000183E+00    8.3600000000000474E+00
             8.6700000000000532E+00    5.9110000000000369E+00    8.3600000000000474E+00
             1.1626000000000074E+01    0.0000000000000000E+00    8.3600000000000474E+00
             1.1626000000000074E+01    2.9550000000000183E+00    8.3600000000000474E+00
             1.1626000000000074E+01    5.9110000000000369E+00    8.3600000000000474E+00
             1.4780000000000086E+00    1.4780000000000086E+00    1.0450000000000065E+01
             1.4780000000000086E+00    4.4330000000000283E+00    1.0450000000000065E+01
             1.4780000000000086E+00    7.3890000000000500E+00    1.0450000000000065E+01
             4.4340000000000250E+00    1.4780000000000086E+00    1.0450000000000065E+01
             4.4340000000000250E+00    4.4330000000000283E+00    1.0450000000000065E+01
             4.4340000000000250E+00    7.3890000000000500E+00    1.0450000000000065E+01
             7.1920000000000455E+00    1.4780000000000086E+00    1.0450000000000065E+01
             7.1920000000000455E+00    4.4330000000000283E+00    1.0450000000000065E+01
             7.1920000000000455E+00    7.3890000000000500E+00    1.0450000000000065E+01
             1.0148000000000060E+01    1.4780000000000086E+00    1.0450000000000065E+01
             1.0148000000000060E+01    4.4330000000000283E+00    1.0450000000000065E+01
             1.0148000000000060E+01    7.3890000000000500E+00    1.0450000000000065E+01
             1.3104000000000077E+01    1.4780000000000086E+00    1.0450000000000065E+01
             1.3104000000000077E+01    4.4330000000000283E+00    1.0450000000000065E+01
             1.3104000000000077E+01    7.3890000000000500E+00    1.0450000000000065E+01
             4.8554000000000306E+00    5.9119000000000375E+00    1.2031800000000070E+01
             9.5280000000000591E+00    5.9137000000000359E+00    1.2034000000000081E+01
             7.1920000000000455E+00    5.9340000000000384E+00    1.2040000000000070E+01
             4.0750319168000226E+00    5.9049488170000339E+00    1.2696844061800080E+01
             1.0293988349500058E+01    5.9062142779000348E+00    1.2716532694500078E+01
             6.0099999686000398E+00    5.9120523853000355E+00    1.2765819797400077E+01
             8.3750478948000477E+00    5.9129627335000325E+00    1.2760746495900074E+01
             8.4047327065000488E+00    5.8893877816000373E+00    1.4094060897200084E+01
             5.9788500869000369E+00    5.8882515165000351E+00    1.4094239568500083E+01
             7.1943473363000452E+00    5.8799164377000332E+00    1.4701118490300091E+01
             7.1912293097000415E+00    5.8521058221000359E+00    1.6050622658200098E+01
             6.3086348447000393E+00    5.8615539361000364E+00    1.6548439365000103E+01
             8.0709262665000505E+00    5.8621389354000337E+00    1.6553588809700098E+01
             7.3120000000000447E+00    5.9340000000000384E+00    2.1043000000000117E+01
             5.8130000000000370E+00    7.4340000000000446E+00    2.2992000000000147E+01
             8.8130000000000521E+00    4.4340000000000250E+00    2.2992000000000147E+01
             5.8130000000000370E+00    4.4330000000000283E+00    2.2992000000000147E+01
             8.8130000000000521E+00    7.4340000000000446E+00    2.2992000000000147E+01
             1.4780000000000086E+00    1.4780000000000086E+00    2.5082000000000139E+01
             1.4780000000000086E+00    4.4330000000000283E+00    2.5082000000000139E+01
             1.4780000000000086E+00    7.3890000000000500E+00    2.5082000000000139E+01
             4.4340000000000250E+00    1.4780000000000086E+00    2.5082000000000139E+01
             4.4340000000000250E+00    4.4330000000000283E+00    2.5082000000000139E+01
             4.4340000000000250E+00    7.3890000000000500E+00    2.5082000000000139E+01
             7.1920000000000455E+00    1.4780000000000086E+00    2.5082000000000139E+01
             7.1920000000000455E+00    4.4330000000000283E+00    2.5082000000000139E+01
             7.1920000000000455E+00    7.3890000000000500E+00    2.5082000000000139E+01
             1.0148000000000060E+01    1.4780000000000086E+00    2.5082000000000139E+01
             1.0148000000000060E+01    4.4330000000000283E+00    2.5082000000000139E+01
             1.0148000000000060E+01    7.3890000000000500E+00    2.5082000000000139E+01
             1.3104000000000077E+01    1.4780000000000086E+00    2.5082000000000139E+01
             1.3104000000000077E+01    4.4330000000000283E+00    2.5082000000000139E+01
             1.3104000000000077E+01    7.3890000000000500E+00    2.5082000000000139E+01
             0.0000000000000000E+00    0.0000000000000000E+00    2.7172000000000160E+01
             0.0000000000000000E+00    2.9550000000000183E+00    2.7172000000000160E+01
             0.0000000000000000E+00    5.9110000000000369E+00    2.7172000000000160E+01
             2.9560000000000173E+00    0.0000000000000000E+00    2.7172000000000160E+01
             2.9560000000000173E+00    2.9550000000000183E+00    2.7172000000000160E+01
             2.9560000000000173E+00    5.9110000000000369E+00    2.7172000000000160E+01
             5.9120000000000346E+00    0.0000000000000000E+00    2.7172000000000160E+01
             5.9120000000000346E+00    2.9550000000000183E+00    2.7172000000000160E+01
             5.9120000000000346E+00    5.9110000000000369E+00    2.7172000000000160E+01
             8.6700000000000532E+00    0.0000000000000000E+00    2.7172000000000160E+01
             8.6700000000000532E+00    2.9550000000000183E+00    2.7172000000000160E+01
             8.6700000000000532E+00    5.9110000000000369E+00    2.7172000000000160E+01
             1.1626000000000074E+01    0.0000000000000000E+00    2.7172000000000160E+01
             1.1626000000000074E+01    2.9550000000000183E+00    2.7172000000000160E+01
             1.1626000000000074E+01    5.9110000000000369E+00    2.7172000000000160E+01
             1.4780000000000086E+00    1.4780000000000086E+00    2.9262000000000167E+01
             1.4780000000000086E+00    4.4330000000000283E+00    2.9262000000000167E+01
             1.4780000000000086E+00    7.3890000000000500E+00    2.9262000000000167E+01
             4.4340000000000250E+00    1.4780000000000086E+00    2.9262000000000167E+01
             4.4340000000000250E+00    4.4330000000000283E+00    2.9262000000000167E+01
             4.4340000000000250E+00    7.3890000000000500E+00    2.9262000000000167E+01
             7.1920000000000455E+00    1.4780000000000086E+00    2.9262000000000167E+01
             7.1920000000000455E+00    4.4330000000000283E+00    2.9262000000000167E+01
             7.1920000000000455E+00    7.3890000000000500E+00    2.9262000000000167E+01
             1.0148000000000060E+01    1.4780000000000086E+00    2.9262000000000167E+01
             1.0148000000000060E+01    4.4330000000000283E+00    2.9262000000000167E+01
             1.0148000000000060E+01    7.3890000000000500E+00    2.9262000000000167E+01
             1.3104000000000077E+01    1.4780000000000086E+00    2.9262000000000167E+01
             1.3104000000000077E+01    4.4330000000000283E+00    2.9262000000000167E+01
             1.3104000000000077E+01    7.3890000000000500E+00    2.9262000000000167E+01
             0.0000000000000000E+00    0.0000000000000000E+00    3.1352000000000185E+01
             0.0000000000000000E+00    2.9550000000000183E+00    3.1352000000000185E+01
             0.0000000000000000E+00    5.9110000000000369E+00    3.1352000000000185E+01
             2.9560000000000173E+00    0.0000000000000000E+00    3.1352000000000185E+01
             2.9560000000000173E+00    2.9550000000000183E+00    3.1352000000000185E+01
             2.9560000000000173E+00    5.9110000000000369E+00    3.1352000000000185E+01
             5.9120000000000346E+00    0.0000000000000000E+00    3.1352000000000185E+01
             5.9120000000000346E+00    2.9550000000000183E+00    3.1352000000000185E+01
             5.9120000000000346E+00    5.9110000000000369E+00    3.1352000000000185E+01
             8.6700000000000532E+00    0.0000000000000000E+00    3.1352000000000185E+01
             8.6700000000000532E+00    2.9550000000000183E+00    3.1352000000000185E+01
             8.6700000000000532E+00    5.9110000000000369E+00    3.1352000000000185E+01
             1.1626000000000074E+01    0.0000000000000000E+00    3.1352000000000185E+01
             1.1626000000000074E+01    2.9550000000000183E+00    3.1352000000000185E+01
             1.1626000000000074E+01    5.9110000000000369E+00    3.1352000000000185E+01
             1.4780000000000086E+00    1.4780000000000086E+00    3.3442000000000206E+01
             1.4780000000000086E+00    4.4330000000000283E+00    3.3442000000000206E+01
             1.4780000000000086E+00    7.3890000000000500E+00    3.3442000000000206E+01
             4.4340000000000250E+00    1.4780000000000086E+00    3.3442000000000206E+01
             4.4340000000000250E+00    4.4330000000000283E+00    3.3442000000000206E+01
             4.4340000000000250E+00    7.3890000000000500E+00    3.3442000000000206E+01
             7.1920000000000455E+00    1.4780000000000086E+00    3.3442000000000206E+01
             7.1920000000000455E+00    4.4330000000000283E+00    3.3442000000000206E+01
             7.1920000000000455E+00    7.3890000000000500E+00    3.3442000000000206E+01
             1.0148000000000060E+01    1.4780000000000086E+00    3.3442000000000206E+01
             1.0148000000000060E+01    4.4330000000000283E+00    3.3442000000000206E+01
             1.0148000000000060E+01    7.3890000000000500E+00    3.3442000000000206E+01
             1.3104000000000077E+01    1.4780000000000086E+00    3.3442000000000206E+01
             1.3104000000000077E+01    4.4330000000000283E+00    3.3442000000000206E+01
             1.3104000000000077E+01    7.3890000000000500E+00    3.3442000000000206E+01
       &END COORD
       &VELOCITY
             0.0000000000000000E+00    0.0000000000000000E+00    0.0000000000000000E+00
             0.0000000000000000E+00    0.0000000000000000E+00    0.0000000000000000E+00
             0.0000000000000000E+00    0.0000000000000000E+00    0.0000000000000000E+00
             0.0000000000000000E+00    0.0000000000000000E+00    0.0000000000000000E+00
             0.0000000000000000E+00    0.0000000000000000E+00    0.0000000000000000E+00
             0.0000000000000000E+00    0.0000000000000000E+00    0.0000000000000000E+00
             0.0000000000000000E+00    0.0000000000000000E+00    0.0000000000000000E+00
             0.0000000000000000E+00    0.0000000000000000E+00    0.0000000000000000E+00
             0.0000000000000000E+00    0.0000000000000000E+00    0.0000000000000000E+00
             0.0000000000000000E+00    0.0000000000000000E+00    0.0000000000000000E+00
             0.0000000000000000E+00    0.0000000000000000E+00    0.0000000000000000E+00
             0.0000000000000000E+00    0.0000000000000000E+00    0.0000000000000000E+00
             0.0000000000000000E+00    0.0000000000000000E+00    0.0000000000000000E+00
             0.0000000000000000E+00    0.0000000000000000E+00    0.0000000000000000E+00
             0.0000000000000000E+00    0.0000000000000000E+00    0.0000000000000000E+00
             0.0000000000000000E+00    0.0000000000000000E+00    0.0000000000000000E+00
             0.0000000000000000E+00    0.0000000000000000E+00    0.0000000000000000E+00
             0.0000000000000000E+00    0.0000000000000000E+00    0.0000000000000000E+00
             0.0000000000000000E+00    0.0000000000000000E+00    0.0000000000000000E+00
             0.0000000000000000E+00    0.0000000000000000E+00    0.0000000000000000E+00
             0.0000000000000000E+00    0.0000000000000000E+00    0.0000000000000000E+00
             0.0000000000000000E+00    0.0000000000000000E+00    0.0000000000000000E+00
             0.0000000000000000E+00    0.0000000000000000E+00    0.0000000000000000E+00
             0.0000000000000000E+00    0.0000000000000000E+00    0.0000000000000000E+00
             0.0000000000000000E+00    0.0000000000000000E+00    0.0000000000000000E+00
             0.0000000000000000E+00    0.0000000000000000E+00    0.0000000000000000E+00
             0.0000000000000000E+00    0.0000000000000000E+00    0.0000000000000000E+00
             0.0000000000000000E+00    0.0000000000000000E+00    0.0000000000000000E+00
             0.0000000000000000E+00    0.0000000000000000E+00    0.0000000000000000E+00
             0.0000000000000000E+00    0.0000000000000000E+00    0.0000000000000000E+00
             0.0000000000000000E+00    0.0000000000000000E+00    0.0000000000000000E+00
             0.0000000000000000E+00    0.0000000000000000E+00    0.0000000000000000E+00
             0.0000000000000000E+00    0.0000000000000000E+00    0.0000000000000000E+00
             0.0000000000000000E+00    0.0000000000000000E+00    0.0000000000000000E+00
             0.0000000000000000E+00    0.0000000000000000E+00    0.0000000000000000E+00
             0.0000000000000000E+00    0.0000000000000000E+00    0.0000000000000000E+00
             0.0000000000000000E+00    0.0000000000000000E+00    0.0000000000000000E+00
             0.0000000000000000E+00    0.0000000000000000E+00    0.0000000000000000E+00
             0.0000000000000000E+00    0.0000000000000000E+00    0.0000000000000000E+00
             0.0000000000000000E+00    0.0000000000000000E+00    0.0000000000000000E+00
             0.0000000000000000E+00    0.0000000000000000E+00    0.0000000000000000E+00
             0.0000000000000000E+00    0.0000000000000000E+00    0.0000000000000000E+00
             0.0000000000000000E+00    0.0000000000000000E+00    0.0000000000000000E+00
             0.0000000000000000E+00    0.0000000000000000E+00    0.0000000000000000E+00
             0.0000000000000000E+00    0.0000000000000000E+00    0.0000000000000000E+00
             0.0000000000000000E+00    0.0000000000000000E+00    0.0000000000000000E+00
             0.0000000000000000E+00    0.0000000000000000E+00    0.0000000000000000E+00
             0.0000000000000000E+00    0.0000000000000000E+00    0.0000000000000000E+00
             0.0000000000000000E+00    0.0000000000000000E+00    0.0000000000000000E+00
             0.0000000000000000E+00    0.0000000000000000E+00    0.0000000000000000E+00
             0.0000000000000000E+00    0.0000000000000000E+00    0.0000000000000000E+00
             0.0000000000000000E+00    0.0000000000000000E+00    0.0000000000000000E+00
             0.0000000000000000E+00    0.0000000000000000E+00    0.0000000000000000E+00
             0.0000000000000000E+00    0.0000000000000000E+00    0.0000000000000000E+00
             0.0000000000000000E+00    0.0000000000000000E+00    0.0000000000000000E+00
             0.0000000000000000E+00    0.0000000000000000E+00    0.0000000000000000E+00
             0.0000000000000000E+00    0.0000000000000000E+00    0.0000000000000000E+00
             0.0000000000000000E+00    0.0000000000000000E+00    0.0000000000000000E+00
             0.0000000000000000E+00    0.0000000000000000E+00    0.0000000000000000E+00
             0.0000000000000000E+00    0.0000000000000000E+00    0.0000000000000000E+00
             0.0000000000000000E+00    0.0000000000000000E+00    0.0000000000000000E+00
             0.0000000000000000E+00    0.0000000000000000E+00    0.0000000000000000E+00
             0.0000000000000000E+00    0.0000000000000000E+00    0.0000000000000000E+00
             0.0000000000000000E+00    0.0000000000000000E+00    0.0000000000000000E+00
             0.0000000000000000E+00    0.0000000000000000E+00    0.0000000000000000E+00
             0.0000000000000000E+00    0.0000000000000000E+00    0.0000000000000000E+00
             0.0000000000000000E+00    0.0000000000000000E+00    0.0000000000000000E+00
             0.0000000000000000E+00    0.0000000000000000E+00    0.0000000000000000E+00
             0.0000000000000000E+00    0.0000000000000000E+00    0.0000000000000000E+00
             0.0000000000000000E+00    0.0000000000000000E+00    0.0000000000000000E+00
             0.0000000000000000E+00    0.0000000000000000E+00    0.0000000000000000E+00
             0.0000000000000000E+00    0.0000000000000000E+00    0.0000000000000000E+00
             0.0000000000000000E+00    0.0000000000000000E+00    0.0000000000000000E+00
             0.0000000000000000E+00    0.0000000000000000E+00    0.0000000000000000E+00
             0.0000000000000000E+00    0.0000000000000000E+00    0.0000000000000000E+00
             0.0000000000000000E+00    0.0000000000000000E+00    0.0000000000000000E+00
             0.0000000000000000E+00    0.0000000000000000E+00    0.0000000000000000E+00
             0.0000000000000000E+00    0.0000000000000000E+00    0.0000000000000000E+00
             0.0000000000000000E+00    0.0000000000000000E+00    0.0000000000000000E+00
             0.0000000000000000E+00    0.0000000000000000E+00    0.0000000000000000E+00
             0.0000000000000000E+00    0.0000000000000000E+00    0.0000000000000000E+00
             0.0000000000000000E+00    0.0000000000000000E+00    0.0000000000000000E+00
             0.0000000000000000E+00    0.0000000000000000E+00    0.0000000000000000E+00
             0.0000000000000000E+00    0.0000000000000000E+00    0.0000000000000000E+00
             0.0000000000000000E+00    0.0000000000000000E+00    0.0000000000000000E+00
             0.0000000000000000E+00    0.0000000000000000E+00    0.0000000000000000E+00
             0.0000000000000000E+00    0.0000000000000000E+00    0.0000000000000000E+00
             0.0000000000000000E+00    0.0000000000000000E+00    0.0000000000000000E+00
             0.0000000000000000E+00    0.0000000000000000E+00    0.0000000000000000E+00
             0.0000000000000000E+00    0.0000000000000000E+00    0.0000000000000000E+00
             0.0000000000000000E+00    0.0000000000000000E+00    0.0000000000000000E+00
             0.0000000000000000E+00    0.0000000000000000E+00    0.0000000000000000E+00
             0.0000000000000000E+00    0.0000000000000000E+00    0.0000000000000000E+00
             0.0000000000000000E+00    0.0000000000000000E+00    0.0000000000000000E+00
             0.0000000000000000E+00    0.0000000000000000E+00    0.0000000000000000E+00
             0.0000000000000000E+00    0.0000000000000000E+00    0.0000000000000000E+00
             0.0000000000000000E+00    0.0000000000000000E+00    0.0000000000000000E+00
             0.0000000000000000E+00    0.0000000000000000E+00    0.0000000000000000E+00
             0.0000000000000000E+00    0.0000000000000000E+00    0.0000000000000000E+00
             0.0000000000000000E+00    0.0000000000000000E+00    0.0000000000000000E+00
             0.0000000000000000E+00    0.0000000000000000E+00    0.0000000000000000E+00
             0.0000000000000000E+00    0.0000000000000000E+00    0.0000000000000000E+00
             0.0000000000000000E+00    0.0000000000000000E+00    0.0000000000000000E+00
             0.0000000000000000E+00    0.0000000000000000E+00    0.0000000000000000E+00
             0.0000000000000000E+00    0.0000000000000000E+00    0.0000000000000000E+00
             0.0000000000000000E+00    0.0000000000000000E+00    0.0000000000000000E+00
             0.0000000000000000E+00    0.0000000000000000E+00    0.0000000000000000E+00
             0.0000000000000000E+00    0.0000000000000000E+00    0.0000000000000000E+00
             0.0000000000000000E+00    0.0000000000000000E+00    0.0000000000000000E+00
             0.0000000000000000E+00    0.0000000000000000E+00    0.0000000000000000E+00
             0.0000000000000000E+00    0.0000000000000000E+00    0.0000000000000000E+00
             0.0000000000000000E+00    0.0000000000000000E+00    0.0000000000000000E+00
             0.0000000000000000E+00    0.0000000000000000E+00    0.0000000000000000E+00
             0.0000000000000000E+00    0.0000000000000000E+00    0.0000000000000000E+00
             0.0000000000000000E+00    0.0000000000000000E+00    0.0000000000000000E+00
             0.0000000000000000E+00    0.0000000000000000E+00    0.0000000000000000E+00
             0.0000000000000000E+00    0.0000000000000000E+00    0.0000000000000000E+00
             0.0000000000000000E+00    0.0000000000000000E+00    0.0000000000000000E+00
             0.0000000000000000E+00    0.0000000000000000E+00    0.0000000000000000E+00
             0.0000000000000000E+00    0.0000000000000000E+00    0.0000000000000000E+00
             0.0000000000000000E+00    0.0000000000000000E+00    0.0000000000000000E+00
             0.0000000000000000E+00    0.0000000000000000E+00    0.0000000000000000E+00
             0.0000000000000000E+00    0.0000000000000000E+00    0.0000000000000000E+00
             0.0000000000000000E+00    0.0000000000000000E+00    0.0000000000000000E+00
             0.0000000000000000E+00    0.0000000000000000E+00    0.0000000000000000E+00
             0.0000000000000000E+00    0.0000000000000000E+00    0.0000000000000000E+00
             0.0000000000000000E+00    0.0000000000000000E+00    0.0000000000000000E+00
             0.0000000000000000E+00    0.0000000000000000E+00    0.0000000000000000E+00
             0.0000000000000000E+00    0.0000000000000000E+00    0.0000000000000000E+00
             0.0000000000000000E+00    0.0000000000000000E+00    0.0000000000000000E+00
             0.0000000000000000E+00    0.0000000000000000E+00    0.0000000000000000E+00
             0.0000000000000000E+00    0.0000000000000000E+00    0.0000000000000000E+00
             0.0000000000000000E+00    0.0000000000000000E+00    0.0000000000000000E+00
             0.0000000000000000E+00    0.0000000000000000E+00    0.0000000000000000E+00
             0.0000000000000000E+00    0.0000000000000000E+00    0.0000000000000000E+00
             0.0000000000000000E+00    0.0000000000000000E+00    0.0000000000000000E+00
             0.0000000000000000E+00    0.0000000000000000E+00    0.0000000000000000E+00
             0.0000000000000000E+00    0.0000000000000000E+00    0.0000000000000000E+00
             0.0000000000000000E+00    0.0000000000000000E+00    0.0000000000000000E+00
             0.0000000000000000E+00    0.0000000000000000E+00    0.0000000000000000E+00
             0.0000000000000000E+00    0.0000000000000000E+00    0.0000000000000000E+00
             0.0000000000000000E+00    0.0000000000000000E+00    0.0000000000000000E+00
             0.0000000000000000E+00    0.0000000000000000E+00    0.0000000000000000E+00
             0.0000000000000000E+00    0.0000000000000000E+00    0.0000000000000000E+00
             0.0000000000000000E+00    0.0000000000000000E+00    0.0000000000000000E+00