 DBCSR| CPU Multiplication driver                                           XSMM
 DBCSR| Multrec recursion limit                                              512
 DBCSR| Multiplication stack size                                           1000
 DBCSR| Maximum elements for images                                    UNLIMITED
 DBCSR| Multiplicative factor virtual images                                   1
 DBCSR| Use multiplication densification                                       T
 DBCSR| Multiplication size stacks                                             3
 DBCSR| Use memory pool for CPU allocation                                     F
 DBCSR| Number of 3D layers                                               SINGLE
 DBCSR| Use MPI memory allocation                                              F
 DBCSR| Use RMA algorithm                                                      F
 DBCSR| Use Communication thread                                               T
 DBCSR| Communication thread load                                             87
 DBCSR| MPI: My node id                                                        0
 DBCSR| MPI: Number of nodes                                                 240
 DBCSR| OMP: Current number of threads                                         1
 DBCSR| OMP: Max number of threads                                             1
 DBCSR| Split modifier for TAS multiplication algorithm                  1.0E+00


  **** **** ******  **  PROGRAM STARTED AT               2023-03-12 13:46:49.433
 ***** ** ***  *** **   PROGRAM STARTED ON                 cn1028.scarf.rl.ac.uk
 **    ****   ******    PROGRAM STARTED BY                             scarf1157
 ***** **    ** ** **   PROGRAM PROCESS ID                                  1462
  **** **  *******  **  PROGRAM STARTED IN /work4/scd/scarf1157/work/testing/cp2
                                           k-smeagol/bdt/cp2k/hollow-site/transp
                                           ort-cp2k/5-4/geometry-ordered/3x3-4/s
                                           z/bulk_layers-4/transmission/exp/sz/s
                                           ergey/kpoints_bulk-31_em-1-1-1_hlb-t-
                                           11.03197_scf-500

 CP2K| version string:                 CP2K version 2022.1 (Development Version)
 CP2K| source code revision number:                                  git:e136ce5
 CP2K| cp2kflags: omp fftw3 libxc parallel mpi3 scalapack xsmm spglib           
 CP2K| is freely available from                            https://www.cp2k.org/
 CP2K| Program compiled at                          Thu  9 Mar 17:17:16 GMT 2023
 CP2K| Program compiled on                                 cn1108.scarf.rl.ac.uk
 CP2K| Program compiled for                                                local
 CP2K| Data directory path    /home/vol07/scarf1157/code/smeagol/cp2k-smeagol/sc
 CP2K| Input file name                                                  3_0V.inp

 GLOBAL| Force Environment number                                              1
 GLOBAL| Basis set file name                                        BASIS_MOLOPT
 GLOBAL| Potential file name                                      GTH_POTENTIALS
 GLOBAL| MM Potential file name                                     MM_POTENTIAL
 GLOBAL| Coordinate file name                                             em.xyz
 GLOBAL| Method name                                                        CP2K
 GLOBAL| Project name                                                         0V
 GLOBAL| Run type                                                         ENERGY
 GLOBAL| FFT library                                                       FFTW3
 GLOBAL| Diagonalization library                                       ScaLAPACK
 GLOBAL| Orthonormality check for eigenvectors                          DISABLED
 GLOBAL| Matrix multiplication library                                 ScaLAPACK
 GLOBAL| All-to-all communication in single precision                          F
 GLOBAL| FFTs using library dependent lengths                                  T
 GLOBAL| Grid backend                                                       AUTO
 GLOBAL| Global print level                                               MEDIUM
 GLOBAL| MPI I/O enabled                                                       T
 GLOBAL| Total number of message passing processes                           240
 GLOBAL| Number of threads for this process                                    1
 GLOBAL| This output is from process                                           0
 GLOBAL| Stack size for threads created by OpenMP (OMP_STACKSIZE)        default
 GLOBAL| CPU model name                         AMD EPYC 7502P 32-Core Processor
 GLOBAL| CPUID                                                              1002

 MEMORY| system memory details [Kb]
 MEMORY|                        rank 0           min           max       average
 MEMORY| MemTotal            263896980     263896980     263896984     263896983
 MEMORY| MemFree              16602672      16602332     196730960      86989673
 MEMORY| Buffers                  2448           204          2568          1800
 MEMORY| Cached              228886632      50450164     228886632     159654125
 MEMORY| Slab                  1859640       1239900       1904820       1605645
 MEMORY| SReclaimable          1290404        683932       1351100       1059572
 MEMORY| MemLikelyFree       246782156     246781308     248619592     247705171


 *** Fundamental physical constants (SI units) ***

 *** Literature: B. J. Mohr and B. N. Taylor,
 ***             CODATA recommended values of the fundamental physical
 ***             constants: 2006, Web Version 5.1
 ***             http://physics.nist.gov/constants

 Speed of light in vacuum [m/s]                             2.99792458000000E+08
 Magnetic constant or permeability of vacuum [N/A**2]       1.25663706143592E-06
 Electric constant or permittivity of vacuum [F/m]          8.85418781762039E-12
 Planck constant (h) [J*s]                                  6.62606896000000E-34
 Planck constant (h-bar) [J*s]                              1.05457162825177E-34
 Elementary charge [C]                                      1.60217648700000E-19
 Electron mass [kg]                                         9.10938215000000E-31
 Electron g factor [ ]                                     -2.00231930436220E+00
 Proton mass [kg]                                           1.67262163700000E-27
 Fine-structure constant                                    7.29735253760000E-03
 Rydberg constant [1/m]                                     1.09737315685270E+07
 Avogadro constant [1/mol]                                  6.02214179000000E+23
 Boltzmann constant [J/K]                                   1.38065040000000E-23
 Atomic mass unit [kg]                                      1.66053878200000E-27
 Bohr radius [m]                                            5.29177208590000E-11

 *** Conversion factors ***

 [u] -> [a.u.]                                              1.82288848426455E+03
 [Angstrom] -> [Bohr] = [a.u.]                              1.88972613288564E+00
 [a.u.] = [Bohr] -> [Angstrom]                              5.29177208590000E-01
 [a.u.] -> [s]                                              2.41888432650478E-17
 [a.u.] -> [fs]                                             2.41888432650478E-02
 [a.u.] -> [J]                                              4.35974393937059E-18
 [a.u.] -> [N]                                              8.23872205491840E-08
 [a.u.] -> [K]                                              3.15774647902944E+05
 [a.u.] -> [kJ/mol]                                         2.62549961709828E+03
 [a.u.] -> [kcal/mol]                                       6.27509468713739E+02
 [a.u.] -> [Pa]                                             2.94210107994716E+13
 [a.u.] -> [bar]                                            2.94210107994716E+08
 [a.u.] -> [atm]                                            2.90362800883016E+08
 [a.u.] -> [eV]                                             2.72113838565563E+01
 [a.u.] -> [Hz]                                             6.57968392072181E+15
 [a.u.] -> [1/cm] (wave numbers)                            2.19474631370540E+05
 [a.u./Bohr**2] -> [1/cm]                                   5.14048714338585E+03
 

 CELL_TOP| Volume [angstrom^3]:                                      2357.480286
 CELL_TOP| Vector a [angstrom     8.336     0.000     0.000   |a| =     8.336000
 CELL_TOP| Vector b [angstrom     0.000     8.336     0.000   |b| =     8.336000
 CELL_TOP| Vector c [angstrom     0.000     0.000    33.926   |c| =    33.926000
 CELL_TOP| Angle (b,c), alpha [degree]:                                90.000000
 CELL_TOP| Angle (a,c), beta  [degree]:                                90.000000
 CELL_TOP| Angle (a,b), gamma [degree]:                                90.000000
 CELL_TOP| Numerically orthorhombic:                                         YES
 CELL_TOP| Periodicity                                                       XYZ

 GENERATE|  Preliminary Number of Bonds generated:                             0
 GENERATE|  Achieved consistency in connectivity generation.

 CELL| Volume [angstrom^3]:                                          2357.480286
 CELL| Vector a [angstrom]:       8.336     0.000     0.000   |a| =     8.336000
 CELL| Vector b [angstrom]:       0.000     8.336     0.000   |b| =     8.336000
 CELL| Vector c [angstrom]:       0.000     0.000    33.926   |c| =    33.926000
 CELL| Angle (b,c), alpha [degree]:                                    90.000000
 CELL| Angle (a,c), beta  [degree]:                                    90.000000
 CELL| Angle (a,b), gamma [degree]:                                    90.000000
 CELL| Numerically orthorhombic:                                             YES
 CELL| Periodicity                                                           XYZ

 CELL_REF| Volume [angstrom^3]:                                      2357.480286
 CELL_REF| Vector a [angstrom     8.336     0.000     0.000   |a| =     8.336000
 CELL_REF| Vector b [angstrom     0.000     8.336     0.000   |b| =     8.336000
 CELL_REF| Vector c [angstrom     0.000     0.000    33.926   |c| =    33.926000
 CELL_REF| Angle (b,c), alpha [degree]:                                90.000000
 CELL_REF| Angle (a,c), beta  [degree]:                                90.000000
 CELL_REF| Angle (a,b), gamma [degree]:                                90.000000
 CELL_REF| Numerically orthorhombic:                                         YES
 CELL_REF| Periodicity                                                       XYZ

 *******************************************************************************
                                    Kpoints
 *******************************************************************************
 BRILLOUIN| K-point scheme                                        Monkhorst-Pack
 BRILLOUIN| K-Point grid                                             1    1    1
 BRILLOUIN| Accuracy in Symmetry determination                      0.100000E-07
 BRILLOUIN| K-Point point group symmetrization                               OFF
 BRILLOUIN| Wavefunction type                                            COMPLEX
 BRILLOUIN| Use full k-point grid     
 BRILLOUIN| List of Kpoints [2 Pi/Bohr]                                        1
 BRILLOUIN| Number           Weight            X              Y              Z
 BRILLOUIN|     1           1.00000        0.00000        0.00000        0.00000
 *******************************************************************************

 *******************************************************************************
 *******************************************************************************
 **                                                                           **
 **     #####                         ##              ##                      **
 **    ##   ##            ##          ##              ##                      **
 **   ##     ##                       ##            ######                    **
 **   ##     ##  ##   ##  ##   #####  ##  ##   ####   ##    #####    #####    **
 **   ##     ##  ##   ##  ##  ##      ## ##   ##      ##   ##   ##  ##   ##   **
 **   ##  ## ##  ##   ##  ##  ##      ####     ###    ##   ######   ######    **
 **    ##  ###   ##   ##  ##  ##      ## ##      ##   ##   ##       ##        **
 **     #######   #####   ##   #####  ##  ##  ####    ##    #####   ##        **
 **           ##                                                    ##        **
 **                                                                           **
 **                                                ... make the atoms dance   **
 **                                                                           **
 **            Copyright (C) by CP2K developers group (2000-2022)             **
 **                      J. Chem. Phys. 152, 194103 (2020)                    **
 **                                                                           **
 *******************************************************************************

 DFT| Spin restricted Kohn-Sham (RKS) calculation                            RKS
 DFT| Multiplicity                                                             1
 DFT| Number of spin states                                                    1
 DFT| Charge                                                                   0
 DFT| Self-interaction correction (SIC)                                       NO
 DFT| Cutoffs: density                                              1.000000E-10
 DFT|          gradient                                             1.000000E-10
 DFT|          tau                                                  1.000000E-10
 DFT|          cutoff_smoothing_range                               0.000000E+00
 DFT| XC density smoothing                                                  NONE
 DFT| XC derivatives                                                          PW

 FUNCTIONAL| PADE:
 FUNCTIONAL| S. Goedecker, M. Teter and J. Hutter, Phys. Rev. B 54, 1703 (1996) 


 QS| Method:                                                                 GPW
 QS| Density plane wave grid type                        NON-SPHERICAL FULLSPACE
 QS| Number of grid levels:                                                    4
 QS| Density cutoff [a.u.]:                                                200.0
 QS| Multi grid cutoff [a.u.]: 1) grid level                               200.0
 QS|                           2) grid level                                66.7
 QS|                           3) grid level                                22.2
 QS|                           4) grid level                                 7.4
 QS| Grid level progression factor:                                          3.0
 QS| Relative density cutoff [a.u.]:                                        20.0
 QS| Interaction thresholds: eps_pgf_orb:                                1.0E-05
 QS|                         eps_filter_matrix:                          0.0E+00
 QS|                         eps_core_charge:                            1.0E-12
 QS|                         eps_rho_gspace:                             1.0E-10
 QS|                         eps_rho_rspace:                             1.0E-10
 QS|                         eps_gvg_rspace:                             1.0E-05
 QS|                         eps_ppl:                                    1.0E-02
 QS|                         eps_ppnl:                                   1.0E-07


 ATOMIC KIND INFORMATION

  1. Atomic kind: Au                                    Number of atoms:     104

     Orbital Basis Set                                         SZV-MOLOPT-SR-GTH

       Number of orbital shell sets:                                           1
       Number of orbital shells:                                               3
       Number of primitive Cartesian functions:                                5
       Number of Cartesian basis functions:                                   10
       Number of spherical basis functions:                                    9
       Norm type:                                                              2

       Normalised Cartesian orbitals:

                        Set   Shell   Orbital            Exponent    Coefficient

                          1       1    2s                2.950008       0.074626
                                                         1.563057      -0.007898
                                                         0.666664      -0.297688
                                                         0.251083       0.136809
                                                         0.081714       0.088198

                          1       2    3px               2.950008       0.148824
                                                         1.563057       0.025430
                                                         0.666664      -0.123003
                                                         0.251083       0.033648
                                                         0.081714       0.059008
                          1       2    3py               2.950008       0.148824
                                                         1.563057       0.025430
                                                         0.666664      -0.123003
                                                         0.251083       0.033648
                                                         0.081714       0.059008
                          1       2    3pz               2.950008       0.148824
                                                         1.563057       0.025430
                                                         0.666664      -0.123003
                                                         0.251083       0.033648
                                                         0.081714       0.059008

                          1       3    4dx2              2.950008      -0.139595
                                                         1.563057       1.319655
                                                         0.666664       0.377081
                                                         0.251083       0.046872
                                                         0.081714       0.001393
                          1       3    4dxy              2.950008      -0.241786
                                                         1.563057       2.285709
                                                         0.666664       0.653124
                                                         0.251083       0.081185
                                                         0.081714       0.002412
                          1       3    4dxz              2.950008      -0.241786
                                                         1.563057       2.285709
                                                         0.666664       0.653124
                                                         0.251083       0.081185
                                                         0.081714       0.002412
                          1       3    4dy2              2.950008      -0.139595
                                                         1.563057       1.319655
                                                         0.666664       0.377081
                                                         0.251083       0.046872
                                                         0.081714       0.001393
                          1       3    4dyz              2.950008      -0.241786
                                                         1.563057       2.285709
                                                         0.666664       0.653124
                                                         0.251083       0.081185
                                                         0.081714       0.002412
                          1       3    4dz2              2.950008      -0.139595
                                                         1.563057       1.319655
                                                         0.666664       0.377081
                                                         0.251083       0.046872
                                                         0.081714       0.001393

       Atomic covalent radius [Angstrom]:                                  1.340

       Atomic van der Waals radius [Angstrom]:                             1.660

     GTH Potential information for                                  GTH-PADE-q11

       Description:                       Goedecker-Teter-Hutter pseudopotential
                                           Goedecker et al., PRB 54, 1703 (1996)
                                          Hartwigsen et al., PRB 58, 3641 (1998)
                                                      Krack, TCA 114, 145 (2005)

       Gaussian exponent of the core charge distribution:               1.436369
       Electronic configuration (s p d ...):                           1   0  10

       Parameters of the local part of the GTH pseudopotential:

                          rloc        C1          C2          C3          C4
                        0.590000   11.604428

       Parameters of the non-local part of the GTH pseudopotential:

                   l      r(l)      h(i,j,l)

                   0    0.521180    2.538614   -1.046137
                                   -1.046137    2.701113
                   1    0.630613    0.394853   -0.869592
                                   -0.869592    2.057831
                   2    0.440706   -4.719070    0.727771
                                    0.727771   -1.650429

  2. Atomic kind: S                                     Number of atoms:       2

     Orbital Basis Set                                         SZV-MOLOPT-SR-GTH

       Number of orbital shell sets:                                           1
       Number of orbital shells:                                               2
       Number of primitive Cartesian functions:                                4
       Number of Cartesian basis functions:                                    4
       Number of spherical basis functions:                                    4
       Norm type:                                                              2

       Normalised Cartesian orbitals:

                        Set   Shell   Orbital            Exponent    Coefficient

                          1       1    2s                2.215855       0.308496
                                                         1.131471       0.138505
                                                         0.410168      -0.373736
                                                         0.140587      -0.040370

                          1       2    3px               2.215855       0.420434
                                                         1.131471      -0.319283
                                                         0.410168      -0.335323
                                                         0.140587      -0.030976
                          1       2    3py               2.215855       0.420434
                                                         1.131471      -0.319283
                                                         0.410168      -0.335323
                                                         0.140587      -0.030976
                          1       2    3pz               2.215855       0.420434
                                                         1.131471      -0.319283
                                                         0.410168      -0.335323
                                                         0.140587      -0.030976

       Atomic covalent radius [Angstrom]:                                  1.020

       Atomic van der Waals radius [Angstrom]:                             1.800

     GTH Potential information for                                   GTH-PADE-q6

       Description:                       Goedecker-Teter-Hutter pseudopotential
                                           Goedecker et al., PRB 54, 1703 (1996)
                                          Hartwigsen et al., PRB 58, 3641 (1998)
                                                      Krack, TCA 114, 145 (2005)

       Gaussian exponent of the core charge distribution:               2.834467
       Electronic configuration (s p d ...):                               2   4

       Parameters of the local part of the GTH pseudopotential:

                          rloc        C1          C2          C3          C4
                        0.420000   -6.554492

       Parameters of the non-local part of the GTH pseudopotential:

                   l      r(l)      h(i,j,l)

                   0    0.361757    7.905303   -1.731881
                                   -1.731881    4.471698
                   1    0.405285    3.866579

  3. Atomic kind: C                                     Number of atoms:       6

     Orbital Basis Set                                         SZV-MOLOPT-SR-GTH

       Number of orbital shell sets:                                           1
       Number of orbital shells:                                               2
       Number of primitive Cartesian functions:                                5
       Number of Cartesian basis functions:                                    4
       Number of spherical basis functions:                                    4
       Norm type:                                                              2

       Normalised Cartesian orbitals:

                        Set   Shell   Orbital            Exponent    Coefficient

                          1       1    2s                5.605331       0.322515
                                                         2.113016       0.213043
                                                         0.769911      -0.209686
                                                         0.348157      -0.219794
                                                         0.128212      -0.022789

                          1       2    3px               5.605331      -0.703879
                                                         2.113016      -0.642521
                                                         0.769911      -0.374851
                                                         0.348157      -0.139743
                                                         0.128212      -0.027849
                          1       2    3py               5.605331      -0.703879
                                                         2.113016      -0.642521
                                                         0.769911      -0.374851
                                                         0.348157      -0.139743
                                                         0.128212      -0.027849
                          1       2    3pz               5.605331      -0.703879
                                                         2.113016      -0.642521
                                                         0.769911      -0.374851
                                                         0.348157      -0.139743
                                                         0.128212      -0.027849

       Atomic covalent radius [Angstrom]:                                  0.770

       Atomic van der Waals radius [Angstrom]:                             1.700

     GTH Potential information for                                   GTH-PADE-q4

       Description:                       Goedecker-Teter-Hutter pseudopotential
                                           Goedecker et al., PRB 54, 1703 (1996)
                                          Hartwigsen et al., PRB 58, 3641 (1998)
                                                      Krack, TCA 114, 145 (2005)

       Gaussian exponent of the core charge distribution:               4.109048
       Electronic configuration (s p d ...):                               2   2

       Parameters of the local part of the GTH pseudopotential:

                          rloc        C1          C2          C3          C4
                        0.348830   -8.513771    1.228432

       Parameters of the non-local part of the GTH pseudopotential:

                   l      r(l)      h(i,j,l)

                   0    0.304553    9.522842
                   1    0.232677

  4. Atomic kind: H                                     Number of atoms:       4

     Orbital Basis Set                                         SZV-MOLOPT-SR-GTH

       Number of orbital shell sets:                                           1
       Number of orbital shells:                                               1
       Number of primitive Cartesian functions:                                5
       Number of Cartesian basis functions:                                    1
       Number of spherical basis functions:                                    1
       Norm type:                                                              2

       Normalised Cartesian orbitals:

                        Set   Shell   Orbital            Exponent    Coefficient

                          1       1    2s               10.068468      -0.133023
                                                         2.680223      -0.177618
                                                         0.791502      -0.258419
                                                         0.239116      -0.107525
                                                         0.082193      -0.014019

       Atomic covalent radius [Angstrom]:                                  0.320

       Atomic van der Waals radius [Angstrom]:                             1.090

     GTH Potential information for                                   GTH-PADE-q1

       Description:                       Goedecker-Teter-Hutter pseudopotential
                                           Goedecker et al., PRB 54, 1703 (1996)
                                          Hartwigsen et al., PRB 58, 3641 (1998)
                                                      Krack, TCA 114, 145 (2005)

       Gaussian exponent of the core charge distribution:              12.500000
       Electronic configuration (s p d ...):                                   1

       Parameters of the local part of the GTH pseudopotential:

                          rloc        C1          C2          C3          C4
                        0.200000   -4.180237    0.725075


 MOLECULE KIND INFORMATION


 All atoms are their own molecule, skipping detailed information


 TOTAL NUMBERS AND MAXIMUM NUMBERS

  Total number of            - Atomic kinds:                                   4
                             - Atoms:                                        116
                             - Shell sets:                                   116
                             - Shells:                                       332
                             - Primitive Cartesian functions:                578
                             - Cartesian basis functions:                   1076
                             - Spherical basis functions:                    972

  Maximum angular momentum of- Orbital basis functions:                        2
                             - Local part of the GTH pseudopotential:          2
                             - Non-local part of the GTH pseudopotential:      4


 MODULE QUICKSTEP: ATOMIC COORDINATES IN ANGSTROM

   Atom Kind Element         X             Y             Z       Z(eff)     Mass
      1    1 Au   79      0.000000      0.000000      0.000000  11.0000 196.9666
      2    1 Au   79      0.000000      4.168000      0.000000  11.0000 196.9666
      3    1 Au   79      2.084000      2.084000      0.000000  11.0000 196.9666
      4    1 Au   79      2.084000      6.252000      0.000000  11.0000 196.9666
      5    1 Au   79      4.168000      0.000000      0.000000  11.0000 196.9666
      6    1 Au   79      4.168000      4.168000      0.000000  11.0000 196.9666
      7    1 Au   79      6.252000      2.084000      0.000000  11.0000 196.9666
      8    1 Au   79      6.252000      6.252000      0.000000  11.0000 196.9666
      9    1 Au   79      0.000000      2.084000      2.084000  11.0000 196.9666
     10    1 Au   79      0.000000      6.252000      2.084000  11.0000 196.9666
     11    1 Au   79      2.084000      0.000000      2.084000  11.0000 196.9666
     12    1 Au   79      2.084000      4.168000      2.084000  11.0000 196.9666
     13    1 Au   79      4.168000      2.084000      2.084000  11.0000 196.9666
     14    1 Au   79      4.168000      6.252000      2.084000  11.0000 196.9666
     15    1 Au   79      6.252000      0.000000      2.084000  11.0000 196.9666
     16    1 Au   79      6.252000      4.168000      2.084000  11.0000 196.9666
     17    1 Au   79      0.000000      0.000000      4.168000  11.0000 196.9666
     18    1 Au   79      0.000000      4.168000      4.168000  11.0000 196.9666
     19    1 Au   79      2.084000      2.084000      4.168000  11.0000 196.9666
     20    1 Au   79      2.084000      6.252000      4.168000  11.0000 196.9666
     21    1 Au   79      4.168000      0.000000      4.168000  11.0000 196.9666
     22    1 Au   79      4.168000      4.168000      4.168000  11.0000 196.9666
     23    1 Au   79      6.252000      2.084000      4.168000  11.0000 196.9666
     24    1 Au   79      6.252000      6.252000      4.168000  11.0000 196.9666
     25    1 Au   79      0.000000      2.084000      6.252000  11.0000 196.9666
     26    1 Au   79      0.000000      6.252000      6.252000  11.0000 196.9666
     27    1 Au   79      2.084000      0.000000      6.252000  11.0000 196.9666
     28    1 Au   79      2.084000      4.168000      6.252000  11.0000 196.9666
     29    1 Au   79      4.168000      2.084000      6.252000  11.0000 196.9666
     30    1 Au   79      4.168000      6.252000      6.252000  11.0000 196.9666
     31    1 Au   79      6.252000      0.000000      6.252000  11.0000 196.9666
     32    1 Au   79      6.252000      4.168000      6.252000  11.0000 196.9666
     33    1 Au   79      0.000000      0.000000      8.336000  11.0000 196.9666
     34    1 Au   79      0.000000      4.168000      8.336000  11.0000 196.9666
     35    1 Au   79      2.084000      2.084000      8.336000  11.0000 196.9666
     36    1 Au   79      2.084000      6.252000      8.336000  11.0000 196.9666
     37    1 Au   79      4.168000      0.000000      8.336000  11.0000 196.9666
     38    1 Au   79      4.168000      4.168000      8.336000  11.0000 196.9666
     39    1 Au   79      6.252000      2.084000      8.336000  11.0000 196.9666
     40    1 Au   79      6.252000      6.252000      8.336000  11.0000 196.9666
     41    1 Au   79      0.000000      2.084000     10.420000  11.0000 196.9666
     42    1 Au   79      0.000000      6.252000     10.420000  11.0000 196.9666
     43    1 Au   79      2.084000      0.000000     10.420000  11.0000 196.9666
     44    1 Au   79      2.084000      4.168000     10.420000  11.0000 196.9666
     45    1 Au   79      4.168000      2.084000     10.420000  11.0000 196.9666
     46    1 Au   79      4.168000      6.252000     10.420000  11.0000 196.9666
     47    1 Au   79      6.252000      0.000000     10.420000  11.0000 196.9666
     48    1 Au   79      6.252000      4.168000     10.420000  11.0000 196.9666
     49    1 Au   79      0.000000      0.000000     12.504000  11.0000 196.9666
     50    1 Au   79      0.000000      4.168000     12.504000  11.0000 196.9666
     51    1 Au   79      2.084000      2.084000     12.504000  11.0000 196.9666
     52    1 Au   79      2.084000      6.252000     12.504000  11.0000 196.9666
     53    1 Au   79      4.168000      0.000000     12.504000  11.0000 196.9666
     54    1 Au   79      4.168000      4.168000     12.504000  11.0000 196.9666
     55    1 Au   79      6.252000      2.084000     12.504000  11.0000 196.9666
     56    1 Au   79      6.252000      6.252000     12.504000  11.0000 196.9666
     57    2 S    16      4.171000      2.086000     13.790000   6.0000  32.0650
     58    3 C     6      4.175000      2.089000     15.551000   4.0000  12.0107
     59    4 H     1      2.073000      2.116000     15.734000   1.0000   1.0079
     60    4 H     1      6.269000      2.116000     15.740000   1.0000   1.0079
     61    3 C     6      2.965000      2.095000     16.251000   4.0000  12.0107
     62    3 C     6      5.373000      2.095000     16.251000   4.0000  12.0107
     63    3 C     6      2.959000      2.074000     17.674000   4.0000  12.0107
     64    3 C     6      5.367000      2.074000     17.674000   4.0000  12.0107
     65    4 H     1      2.063000      2.053000     18.186000   1.0000   1.0079
     66    4 H     1      6.259000      2.053000     18.192000   1.0000   1.0079
     67    3 C     6      4.157000      2.080000     18.375000   4.0000  12.0107
     68    2 S    16      4.171000      2.086000     20.136000   6.0000  32.0650
     69    1 Au   79      0.000000      0.000000     21.422000  11.0000 196.9666
     70    1 Au   79      0.000000      4.168000     21.422000  11.0000 196.9666
     71    1 Au   79      2.084000      2.084000     21.422000  11.0000 196.9666
     72    1 Au   79      2.084000      6.252000     21.422000  11.0000 196.9666
     73    1 Au   79      4.168000      0.000000     21.422000  11.0000 196.9666
     74    1 Au   79      4.168000      4.168000     21.422000  11.0000 196.9666
     75    1 Au   79      6.252000      2.084000     21.422000  11.0000 196.9666
     76    1 Au   79      6.252000      6.252000     21.422000  11.0000 196.9666
     77    1 Au   79      0.000000      2.084000     23.506000  11.0000 196.9666
     78    1 Au   79      0.000000      6.252000     23.506000  11.0000 196.9666
     79    1 Au   79      2.084000      0.000000     23.506000  11.0000 196.9666
     80    1 Au   79      2.084000      4.168000     23.506000  11.0000 196.9666
     81    1 Au   79      4.168000      2.084000     23.506000  11.0000 196.9666
     82    1 Au   79      4.168000      6.252000     23.506000  11.0000 196.9666
     83    1 Au   79      6.252000      0.000000     23.506000  11.0000 196.9666
     84    1 Au   79      6.252000      4.168000     23.506000  11.0000 196.9666
     85    1 Au   79      0.000000      0.000000     25.590000  11.0000 196.9666
     86    1 Au   79      0.000000      4.168000     25.590000  11.0000 196.9666
     87    1 Au   79      2.084000      2.084000     25.590000  11.0000 196.9666
     88    1 Au   79      2.084000      6.252000     25.590000  11.0000 196.9666
     89    1 Au   79      4.168000      0.000000     25.590000  11.0000 196.9666
     90    1 Au   79      4.168000      4.168000     25.590000  11.0000 196.9666
     91    1 Au   79      6.252000      2.084000     25.590000  11.0000 196.9666
     92    1 Au   79      6.252000      6.252000     25.590000  11.0000 196.9666
     93    1 Au   79      0.000000      2.084000     27.674000  11.0000 196.9666
     94    1 Au   79      0.000000      6.252000     27.674000  11.0000 196.9666
     95    1 Au   79      2.084000      0.000000     27.674000  11.0000 196.9666
     96    1 Au   79      2.084000      4.168000     27.674000  11.0000 196.9666
     97    1 Au   79      4.168000      2.084000     27.674000  11.0000 196.9666
     98    1 Au   79      4.168000      6.252000     27.674000  11.0000 196.9666
     99    1 Au   79      6.252000      0.000000     27.674000  11.0000 196.9666
    100    1 Au   79      6.252000      4.168000     27.674000  11.0000 196.9666
    101    1 Au   79      0.000000      0.000000     29.758000  11.0000 196.9666
    102    1 Au   79      0.000000      4.168000     29.758000  11.0000 196.9666
    103    1 Au   79      2.084000      2.084000     29.758000  11.0000 196.9666
    104    1 Au   79      2.084000      6.252000     29.758000  11.0000 196.9666
    105    1 Au   79      4.168000      0.000000     29.758000  11.0000 196.9666
    106    1 Au   79      4.168000      4.168000     29.758000  11.0000 196.9666
    107    1 Au   79      6.252000      2.084000     29.758000  11.0000 196.9666
    108    1 Au   79      6.252000      6.252000     29.758000  11.0000 196.9666
    109    1 Au   79      0.000000      2.084000     31.842000  11.0000 196.9666
    110    1 Au   79      0.000000      6.252000     31.842000  11.0000 196.9666
    111    1 Au   79      2.084000      0.000000     31.842000  11.0000 196.9666
    112    1 Au   79      2.084000      4.168000     31.842000  11.0000 196.9666
    113    1 Au   79      4.168000      2.084000     31.842000  11.0000 196.9666
    114    1 Au   79      4.168000      6.252000     31.842000  11.0000 196.9666
    115    1 Au   79      6.252000      0.000000     31.842000  11.0000 196.9666
    116    1 Au   79      6.252000      4.168000     31.842000  11.0000 196.9666



 SCF PARAMETERS         Density guess:                                   RESTART
                        --------------------------------------------------------
                        max_scf:                                             500
                        max_scf_history:                                       0
                        max_diis:                                              4
                        --------------------------------------------------------
                        eps_scf:                                        1.00E-07
                        eps_scf_history:                                0.00E+00
                        eps_diis:                                       1.00E-01
                        eps_eigval:                                     1.00E-05
                        --------------------------------------------------------
                        level_shift [a.u.]:                             0.000000
                        added MOs                                       100    0
                        --------------------------------------------------------
                        Mixing method:                            BROYDEN_MIXING
                                                charge density mixing in g-space
                        --------------------------------------------------------
                        Smear method:                                FERMI_DIRAC
                        Electronic temperature [K]:                        293.0
                        Electronic temperature [a.u.]:                  9.28E-04
                        Accuracy threshold:                             1.00E-10
                        --------------------------------------------------------
                        No outer SCF

 PW_GRID| Information for grid number                                          1
 PW_GRID| Grid distributed over                                   240 processors
 PW_GRID| Real space group dimensions                                    12   20
 PW_GRID| the grid is blocked:                                               YES
 PW_GRID| Cutoff [a.u.]                                                    200.0
 PW_GRID| spherical cutoff:                                                   NO
 PW_GRID|   Bounds   1            -52      52                Points:         105
 PW_GRID|   Bounds   2            -52      52                Points:         105
 PW_GRID|   Bounds   3           -210     209                Points:         420
 PW_GRID| Volume element (a.u.^3)  0.3436E-02     Volume (a.u.^3)     15909.0657
 PW_GRID| Grid span                                                    FULLSPACE
 PW_GRID|   Distribution                         Average         Max         Min
 PW_GRID|   G-Vectors                            19293.8       19845       17640
 PW_GRID|   G-Rays                                 183.8         189         168
 PW_GRID|   Real Space Points                    19293.8       19845       17640

 PW_GRID| Information for grid number                                          2
 PW_GRID| Number of the reference grid                                         1
 PW_GRID| Grid distributed over                                   240 processors
 PW_GRID| Real space group dimensions                                    12   20
 PW_GRID| the grid is blocked:                                                NO
 PW_GRID| Cutoff [a.u.]                                                     66.7
 PW_GRID| spherical cutoff:                                                   NO
 PW_GRID|   Bounds   1            -30      29                Points:          60
 PW_GRID|   Bounds   2            -30      29                Points:          60
 PW_GRID|   Bounds   3           -120     119                Points:         240
 PW_GRID| Volume element (a.u.^3)  0.1841E-01     Volume (a.u.^3)     15909.0657
 PW_GRID| Grid span                                                    FULLSPACE
 PW_GRID|   Distribution                         Average         Max         Min
 PW_GRID|   G-Vectors                             3600.0       11340           0
 PW_GRID|   G-Rays                                  60.0         189           0
 PW_GRID|   Real Space Points                     3600.0        3600        3600

 PW_GRID| Information for grid number                                          3
 PW_GRID| Number of the reference grid                                         1
 PW_GRID| Grid distributed over                                   240 processors
 PW_GRID| Real space group dimensions                                    12   20
 PW_GRID| the grid is blocked:                                                NO
 PW_GRID| Cutoff [a.u.]                                                     22.2
 PW_GRID| spherical cutoff:                                                   NO
 PW_GRID|   Bounds   1            -16      16                Points:          33
 PW_GRID|   Bounds   2            -16      16                Points:          33
 PW_GRID|   Bounds   3            -70      69                Points:         140
 PW_GRID| Volume element (a.u.^3)  0.1043         Volume (a.u.^3)     15909.0657
 PW_GRID| Grid span                                                    FULLSPACE
 PW_GRID|   Distribution                         Average         Max         Min
 PW_GRID|   G-Vectors                              635.2        6237           0
 PW_GRID|   G-Rays                                  19.2         189           0
 PW_GRID|   Real Space Points                      635.2         840         280

 PW_GRID| Information for grid number                                          4
 PW_GRID| Number of the reference grid                                         1
 PW_GRID| Grid distributed over                                   240 processors
 PW_GRID| Real space group dimensions                                    12   20
 PW_GRID| the grid is blocked:                                                NO
 PW_GRID| Cutoff [a.u.]                                                      7.4
 PW_GRID| spherical cutoff:                                                   NO
 PW_GRID|   Bounds   1            -10       9                Points:          20
 PW_GRID|   Bounds   2            -10       9                Points:          20
 PW_GRID|   Bounds   3            -40      39                Points:          80
 PW_GRID| Volume element (a.u.^3)  0.4972         Volume (a.u.^3)     15909.0657
 PW_GRID| Grid span                                                    FULLSPACE
 PW_GRID|   Distribution                         Average         Max         Min
 PW_GRID|   G-Vectors                              133.3        3780           0
 PW_GRID|   G-Rays                                   6.7         189           0
 PW_GRID|   Real Space Points                      133.3         160          80

 POISSON| Solver                                                        PERIODIC
 POISSON| Periodicity                                                        XYZ

 RS_GRID| Information for grid number                                          1
 RS_GRID|   Bounds   1            -52      52                Points:         105
 RS_GRID|   Bounds   2            -52      52                Points:         105
 RS_GRID|   Bounds   3           -210     209                Points:         420
 RS_GRID| Real space distribution over                                  8 groups
 RS_GRID| Real space distribution along direction                              2
 RS_GRID| Border size                                                         30
 RS_GRID| Real space distribution over                                 30 groups
 RS_GRID| Real space distribution along direction                              3
 RS_GRID| Border size                                                         30
 RS_GRID|   Distribution                         Average         Max         Min
 RS_GRID|   Planes                                  73.1          74          73
 RS_GRID|   Distribution                         Average         Max         Min
 RS_GRID|   Planes                                  74.0          74          74

 RS_GRID| Information for grid number                                          2
 RS_GRID|   Bounds   1            -30      29                Points:          60
 RS_GRID|   Bounds   2            -30      29                Points:          60
 RS_GRID|   Bounds   3           -120     119                Points:         240
 RS_GRID| Real space distribution over                                  8 groups
 RS_GRID| Real space distribution along direction                              2
 RS_GRID| Border size                                                         21
 RS_GRID| Real space distribution over                                 30 groups
 RS_GRID| Real space distribution along direction                              3
 RS_GRID| Border size                                                         21
 RS_GRID|   Distribution                         Average         Max         Min
 RS_GRID|   Planes                                  49.5          50          49
 RS_GRID|   Distribution                         Average         Max         Min
 RS_GRID|   Planes                                  50.0          50          50

 RS_GRID| Information for grid number                                          3
 RS_GRID|   Bounds   1            -16      16                Points:          33
 RS_GRID|   Bounds   2            -16      16                Points:          33
 RS_GRID|   Bounds   3            -70      69                Points:         140
 RS_GRID| Real space fully replicated
 RS_GRID| Group size                                                           1

 RS_GRID| Information for grid number                                          4
 RS_GRID|   Bounds   1            -10       9                Points:          20
 RS_GRID|   Bounds   2            -10       9                Points:          20
 RS_GRID|   Bounds   3            -40      39                Points:          80
 RS_GRID| Real space fully replicated
 RS_GRID| Group size                                                           1

 KPOINTS| Number of kpoint groups                                              1
 KPOINTS| Size of each kpoint group                                          240
 KPOINTS| Number of kpoints per group                                          1

 Number of electrons:                                                       1184
 Number of occupied orbitals:                                                592
 Number of molecular orbitals:                                               692

 Number of orbital functions:                                                972
 Number of independent orbital functions:                                    972

 Extrapolation method: initial_guess


 SCF WAVEFUNCTION OPTIMIZATION

  Step     Update method      Time    Convergence         Total energy    Change
  ------------------------------------------------------------------------------
 SMEAGOL DEBUG| Number of electrons in the unit cell =      1183.9999999945
     1 NoMix/SMGL  0.30E+00   21.1     0.04248138     -3517.6022853093 -3.52E+03
 SMEAGOL DEBUG| Number of electrons in the unit cell =      1184.1841770255
     2 Broy./SMGL  0.30E+00    9.8     0.03909624     -3517.3386594286  2.64E-01
 SMEAGOL DEBUG| Number of electrons in the unit cell =      1184.0289230721
     3 Broy./SMGL  0.30E+00    9.9     0.05749632     -3521.2150034284 -3.88E+00
 SMEAGOL DEBUG| Number of electrons in the unit cell =      1184.0376583161
     4 Broy./SMGL  0.30E+00   10.4     0.04810624     -3516.5734048360  4.64E+00
 SMEAGOL DEBUG| Number of electrons in the unit cell =      1184.0413232769
     5 Broy./SMGL  0.30E+00    9.8     0.02729853     -3518.3482383186 -1.77E+00
 SMEAGOL DEBUG| Number of electrons in the unit cell =      1184.0102643297
     6 Broy./SMGL  0.30E+00   10.4     0.01444703     -3518.8667857090 -5.19E-01
 SMEAGOL DEBUG| Number of electrons in the unit cell =      1184.0004674625
     7 Broy./SMGL  0.30E+00    9.8     0.01878388     -3517.5902725971  1.28E+00
 SMEAGOL DEBUG| Number of electrons in the unit cell =      1183.9962998051
     8 Broy./SMGL  0.30E+00    9.6     0.01710672     -3517.7423890040 -1.52E-01
 SMEAGOL DEBUG| Number of electrons in the unit cell =      1184.0008215996
     9 Broy./SMGL  0.30E+00    9.7     0.01054615     -3517.4909147029  2.51E-01
 SMEAGOL DEBUG| Number of electrons in the unit cell =      1184.0064994945
    10 Broy./SMGL  0.30E+00    9.7     0.01800331     -3517.5960845275 -1.05E-01
 SMEAGOL DEBUG| Number of electrons in the unit cell =      1184.0126857888
    11 Broy./SMGL  0.30E+00    9.7     0.00646261     -3517.5930003726  3.08E-03
 SMEAGOL DEBUG| Number of electrons in the unit cell =      1184.0168987201
    12 Broy./SMGL  0.30E+00    9.7     0.00645442     -3517.6335593099 -4.06E-02
 SMEAGOL DEBUG| Number of electrons in the unit cell =      1184.0195270059
    13 Broy./SMGL  0.30E+00    9.6     0.00645442     -3517.6534724208 -1.99E-02
 SMEAGOL DEBUG| Number of electrons in the unit cell =      1184.0202513069
    14 Broy./SMGL  0.30E+00    9.6     0.00546817     -3517.6603855013 -6.91E-03
 SMEAGOL DEBUG| Number of electrons in the unit cell =      1184.0203846907
    15 Broy./SMGL  0.30E+00    9.6     0.00645526     -3517.6625470600 -2.16E-03
 SMEAGOL DEBUG| Number of electrons in the unit cell =      1184.0205733438
    16 Broy./SMGL  0.30E+00    9.6     0.00163777     -3517.6629233814 -3.76E-04
 SMEAGOL DEBUG| Number of electrons in the unit cell =      1184.0203057213
    17 Broy./SMGL  0.30E+00    9.7     0.00645525     -3517.6643078246 -1.38E-03
 SMEAGOL DEBUG| Number of electrons in the unit cell =      1184.0204211264
    18 Broy./SMGL  0.30E+00   11.3     0.00416438     -3517.6623070805  2.00E-03
 SMEAGOL DEBUG| Number of electrons in the unit cell =      1184.0203974957
    19 Broy./SMGL  0.30E+00    9.7     0.00058991     -3517.6629865642 -6.79E-04
 SMEAGOL DEBUG| Number of electrons in the unit cell =      1184.0202989732
    20 Broy./SMGL  0.30E+00    9.6     0.00163993     -3517.6636243446 -6.38E-04
 SMEAGOL DEBUG| Number of electrons in the unit cell =      1184.0203784528
    21 Broy./SMGL  0.30E+00    9.9     0.00163993     -3517.6625791136  1.05E-03
 SMEAGOL DEBUG| Number of electrons in the unit cell =      1184.0203238279
    22 Broy./SMGL  0.30E+00    9.6     0.00037216     -3517.6633886034 -8.09E-04
 SMEAGOL DEBUG| Number of electrons in the unit cell =      1184.0202953741
    23 Broy./SMGL  0.30E+00    9.4     0.00038375     -3517.6633408121  4.78E-05
 SMEAGOL DEBUG| Number of electrons in the unit cell =      1184.0202680876
    24 Broy./SMGL  0.30E+00    9.6     0.00008993     -3517.6631878080  1.53E-04
 SMEAGOL DEBUG| Number of electrons in the unit cell =      1184.0202390625
    25 Broy./SMGL  0.30E+00    9.6     0.00016357     -3517.6632129848 -2.52E-05
 SMEAGOL DEBUG| Number of electrons in the unit cell =      1184.0202170254
    26 Broy./SMGL  0.30E+00    9.6     0.00009703     -3517.6632127754  2.09E-07
 SMEAGOL DEBUG| Number of electrons in the unit cell =      1184.0202135395
    27 Broy./SMGL  0.30E+00    9.5     0.00011709     -3517.6631556093  5.72E-05
 SMEAGOL DEBUG| Number of electrons in the unit cell =      1184.0202112068
    28 Broy./SMGL  0.30E+00    9.1     0.00009703     -3517.6631506102  5.00E-06
 SMEAGOL DEBUG| Number of electrons in the unit cell =      1184.0202155803
    29 Broy./SMGL  0.30E+00    9.3     0.00009703     -3517.6631610460 -1.04E-05
 SMEAGOL DEBUG| Number of electrons in the unit cell =      1184.0202158879
    30 Broy./SMGL  0.30E+00    9.7     0.00009703     -3517.6631894686 -2.84E-05
 SMEAGOL DEBUG| Number of electrons in the unit cell =      1184.0202214512
    31 Broy./SMGL  0.30E+00    9.4     0.00014953     -3517.6631690292  2.04E-05
 SMEAGOL DEBUG| Number of electrons in the unit cell =      1184.0202220065
    32 Broy./SMGL  0.30E+00    9.4     0.00014952     -3517.6631682150  8.14E-07
 SMEAGOL DEBUG| Number of electrons in the unit cell =      1184.0202223833
    33 Broy./SMGL  0.30E+00    9.5     0.00009702     -3517.6631717839 -3.57E-06
 SMEAGOL DEBUG| Number of electrons in the unit cell =      1184.0202228033
    34 Broy./SMGL  0.30E+00    9.3     0.00003844     -3517.6631839359 -1.22E-05
 SMEAGOL DEBUG| Number of electrons in the unit cell =      1184.0202243155
    35 Broy./SMGL  0.30E+00    9.3     0.00009702     -3517.6631696880  1.42E-05
 SMEAGOL DEBUG| Number of electrons in the unit cell =      1184.0202237151
    36 Broy./SMGL  0.30E+00    9.4     0.00009702     -3517.6631683109  1.38E-06
 SMEAGOL DEBUG| Number of electrons in the unit cell =      1184.0202241260
    37 Broy./SMGL  0.30E+00    9.2     0.00008990     -3517.6631662430  2.07E-06
 SMEAGOL DEBUG| Number of electrons in the unit cell =      1184.0202243198
    38 Broy./SMGL  0.30E+00    9.2     0.00002839     -3517.6631695156 -3.27E-06
 SMEAGOL DEBUG| Number of electrons in the unit cell =      1184.0202245708
    39 Broy./SMGL  0.30E+00    9.3     0.00008990     -3517.6631697392 -2.24E-07
 SMEAGOL DEBUG| Number of electrons in the unit cell =      1184.0202244089
    40 Broy./SMGL  0.30E+00    9.5     0.00000147     -3517.6631748290 -5.09E-06
 SMEAGOL DEBUG| Number of electrons in the unit cell =      1184.0202242255
    41 Broy./SMGL  0.30E+00    9.2     0.00003844     -3517.6631737535  1.08E-06
 SMEAGOL DEBUG| Number of electrons in the unit cell =      1184.0202241783
    42 Broy./SMGL  0.30E+00    9.2     0.00003844     -3517.6631731148  6.39E-07
 SMEAGOL DEBUG| Number of electrons in the unit cell =      1184.0202240778
    43 Broy./SMGL  0.30E+00    9.3     0.00014953     -3517.6631721788  9.36E-07
 SMEAGOL DEBUG| Number of electrons in the unit cell =      1184.0202241565
    44 Broy./SMGL  0.30E+00    9.2     0.00014952     -3517.6631733093 -1.13E-06
 SMEAGOL DEBUG| Number of electrons in the unit cell =      1184.0202241068
    45 Broy./SMGL  0.30E+00    9.1     0.00003886     -3517.6631729355  3.74E-07
 SMEAGOL DEBUG| Number of electrons in the unit cell =      1184.0202241017
    46 Broy./SMGL  0.30E+00    9.3     0.00002533     -3517.6631744838 -1.55E-06
 SMEAGOL DEBUG| Number of electrons in the unit cell =      1184.0202240995
    47 Broy./SMGL  0.30E+00    9.3     0.00002533     -3517.6631743940  8.98E-08
 SMEAGOL DEBUG| Number of electrons in the unit cell =      1184.0202241161
    48 Broy./SMGL  0.30E+00    9.1     0.00003886     -3517.6631742682  1.26E-07
 SMEAGOL DEBUG| Number of electrons in the unit cell =      1184.0202239749
    49 Broy./SMGL  0.30E+00    9.1     0.00014953     -3517.6631746886 -4.20E-07
 SMEAGOL DEBUG| Number of electrons in the unit cell =      1184.0202241400
    50 Broy./SMGL  0.30E+00    9.2     0.00014953     -3517.6631706663  4.02E-06
 SMEAGOL DEBUG| Number of electrons in the unit cell =      1184.0202241663
    51 Broy./SMGL  0.30E+00    9.5     0.00005247     -3517.6631734379 -2.77E-06
 SMEAGOL DEBUG| Number of electrons in the unit cell =      1184.0202239126
    52 Broy./SMGL  0.30E+00    9.1     0.00003553     -3517.6631739509 -5.13E-07
 SMEAGOL DEBUG| Number of electrons in the unit cell =      1184.0202239018
    53 Broy./SMGL  0.30E+00    9.4     0.00003553     -3517.6631691520  4.80E-06
 SMEAGOL DEBUG| Number of electrons in the unit cell =      1184.0202242336
    54 Broy./SMGL  0.30E+00    9.2     0.00000639     -3517.6631687943  3.58E-07
 SMEAGOL DEBUG| Number of electrons in the unit cell =      1184.0202240524
    55 Broy./SMGL  0.30E+00    9.4     0.00000542     -3517.6631766777 -7.88E-06
 SMEAGOL DEBUG| Number of electrons in the unit cell =      1184.0202241050
    56 Broy./SMGL  0.30E+00    9.2     0.00002103     -3517.6631710181  5.66E-06
 SMEAGOL DEBUG| Number of electrons in the unit cell =      1184.0202240716
    57 Broy./SMGL  0.30E+00    9.1     0.00002103     -3517.6631738003 -2.78E-06
 SMEAGOL DEBUG| Number of electrons in the unit cell =      1184.0202240943
    58 Broy./SMGL  0.30E+00    9.2     0.00003886     -3517.6631722056  1.59E-06
 SMEAGOL DEBUG| Number of electrons in the unit cell =      1184.0202240815
    59 Broy./SMGL  0.30E+00    9.1     0.00003886     -3517.6631734378 -1.23E-06
 SMEAGOL DEBUG| Number of electrons in the unit cell =      1184.0202240809
    60 Broy./SMGL  0.30E+00    9.3     0.00014953     -3517.6631726996  7.38E-07
 SMEAGOL DEBUG| Number of electrons in the unit cell =      1184.0202240828
    61 Broy./SMGL  0.30E+00   10.0     0.00014953     -3517.6631728006 -1.01E-07
 SMEAGOL DEBUG| Number of electrons in the unit cell =      1184.0202240820
    62 Broy./SMGL  0.30E+00    9.3     0.00005247     -3517.6631727799  2.07E-08
 SMEAGOL DEBUG| Number of electrons in the unit cell =      1184.0202241056
    63 Broy./SMGL  0.30E+00    9.0     0.00003886     -3517.6631728224 -4.25E-08
 SMEAGOL DEBUG| Number of electrons in the unit cell =      1184.0202241144
    64 Broy./SMGL  0.30E+00    9.7     0.00003553     -3517.6631742851 -1.46E-06
 SMEAGOL DEBUG| Number of electrons in the unit cell =      1184.0202240901
    65 Broy./SMGL  0.30E+00    9.2     0.00003886     -3517.6631743566 -7.15E-08
 SMEAGOL DEBUG| Number of electrons in the unit cell =      1184.0202240773
    66 Broy./SMGL  0.30E+00    9.2     0.00000639     -3517.6631713782  2.98E-06
 SMEAGOL DEBUG| Number of electrons in the unit cell =      1184.0202240808
    67 Broy./SMGL  0.30E+00    9.2     0.00001002     -3517.6631734219 -2.04E-06
 SMEAGOL DEBUG| Number of electrons in the unit cell =      1184.0202240954
    68 Broy./SMGL  0.30E+00    9.3     0.00002103     -3517.6631727911  6.31E-07
 SMEAGOL DEBUG| Number of electrons in the unit cell =      1184.0202240808
    69 Broy./SMGL  0.30E+00    9.2     0.00000639     -3517.6631727648  2.63E-08
 SMEAGOL DEBUG| Number of electrons in the unit cell =      1184.0202240971
    70 Broy./SMGL  0.30E+00    9.2     0.00014953     -3517.6631724659  2.99E-07
 SMEAGOL DEBUG| Number of electrons in the unit cell =      1184.0202240995
    71 Broy./SMGL  0.30E+00    9.3     0.00014953     -3517.6631729205 -4.55E-07
 SMEAGOL DEBUG| Number of electrons in the unit cell =      1184.0202240757
    72 Broy./SMGL  0.30E+00    9.1     0.00005247     -3517.6631730210 -1.00E-07
 SMEAGOL DEBUG| Number of electrons in the unit cell =      1184.0202240766
    73 Broy./SMGL  0.30E+00    9.6     0.00005247     -3517.6631721515  8.69E-07
 SMEAGOL DEBUG| Number of electrons in the unit cell =      1184.0202241644
    74 Broy./SMGL  0.30E+00    9.1     0.00003886     -3517.6631722768 -1.25E-07
 SMEAGOL DEBUG| Number of electrons in the unit cell =      1184.0202241416
    75 Broy./SMGL  0.30E+00    9.3     0.00003886     -3517.6631754223 -3.15E-06
 SMEAGOL DEBUG| Number of electrons in the unit cell =      1184.0202240446
    76 Broy./SMGL  0.30E+00    9.2     0.00002103     -3517.6631756422 -2.20E-07
 SMEAGOL DEBUG| Number of electrons in the unit cell =      1184.0202240667
    77 Broy./SMGL  0.30E+00    9.2     0.00003553     -3517.6631699541  5.69E-06
 SMEAGOL DEBUG| Number of electrons in the unit cell =      1184.0202240901
    78 Broy./SMGL  0.30E+00    9.2     0.00003553     -3517.6631717590 -1.80E-06
 SMEAGOL DEBUG| Number of electrons in the unit cell =      1184.0202241300
    79 Broy./SMGL  0.30E+00    9.2     0.00002103     -3517.6631723627 -6.04E-07
 SMEAGOL DEBUG| Number of electrons in the unit cell =      1184.0202240706
    80 Broy./SMGL  0.30E+00    9.2     0.00014953     -3517.6631741231 -1.76E-06
 SMEAGOL DEBUG| Number of electrons in the unit cell =      1184.0202240732
    81 Broy./SMGL  0.30E+00    9.2     0.00014953     -3517.6631720854  2.04E-06
 SMEAGOL DEBUG| Number of electrons in the unit cell =      1184.0202241662
    82 Broy./SMGL  0.30E+00    9.2     0.00000639     -3517.6631722227 -1.37E-07
 SMEAGOL DEBUG| Number of electrons in the unit cell =      1184.0202240999
    83 Broy./SMGL  0.30E+00    9.2     0.00003886     -3517.6631742584 -2.04E-06
 SMEAGOL DEBUG| Number of electrons in the unit cell =      1184.0202241101
    84 Broy./SMGL  0.30E+00   12.1     0.00003886     -3517.6631726280  1.63E-06
 SMEAGOL DEBUG| Number of electrons in the unit cell =      1184.0202241108
    85 Broy./SMGL  0.30E+00    9.9     0.00005247     -3517.6631729919 -3.64E-07
 SMEAGOL DEBUG| Number of electrons in the unit cell =      1184.0202241216
    86 Broy./SMGL  0.30E+00    9.2     0.00005247     -3517.6631735211 -5.29E-07
 SMEAGOL DEBUG| Number of electrons in the unit cell =      1184.0202240140
    87 Broy./SMGL  0.30E+00    9.3     0.00003553     -3517.6631738385 -3.17E-07
 SMEAGOL DEBUG| Number of electrons in the unit cell =      1184.0202239658
    88 Broy./SMGL  0.30E+00    9.2     0.00003553     -3517.6631688861  4.95E-06
 SMEAGOL DEBUG| Number of electrons in the unit cell =      1184.0202241503
    89 Broy./SMGL  0.30E+00    9.4     0.00002103     -3517.6631656605  3.23E-06
 SMEAGOL DEBUG| Number of electrons in the unit cell =      1184.0202242004
    90 Broy./SMGL  0.30E+00    9.2     0.00014953     -3517.6631756922 -1.00E-05
 SMEAGOL DEBUG| Number of electrons in the unit cell =      1184.0202242130
    91 Broy./SMGL  0.30E+00    9.2     0.00014953     -3517.6631754764  2.16E-07
 SMEAGOL DEBUG| Number of electrons in the unit cell =      1184.0202239542
    92 Broy./SMGL  0.30E+00   11.1     0.00002103     -3517.6631755523 -7.60E-08
 SMEAGOL DEBUG| Number of electrons in the unit cell =      1184.0202241031
    93 Broy./SMGL  0.30E+00    9.6     0.00003886     -3517.6631690595  6.49E-06
 SMEAGOL DEBUG| Number of electrons in the unit cell =      1184.0202241073
    94 Broy./SMGL  0.30E+00    9.1     0.00003886     -3517.6631723721 -3.31E-06
 SMEAGOL DEBUG| Number of electrons in the unit cell =      1184.0202241365
    95 Broy./SMGL  0.30E+00    9.1     0.00002103     -3517.6631725570 -1.85E-07
 SMEAGOL DEBUG| Number of electrons in the unit cell =      1184.0202241187
    96 Broy./SMGL  0.30E+00    9.2     0.00005247     -3517.6631735682 -1.01E-06
 SMEAGOL DEBUG| Number of electrons in the unit cell =      1184.0202241179
    97 Broy./SMGL  0.30E+00    9.5     0.00005247     -3517.6631730270  5.41E-07
 SMEAGOL DEBUG| Number of electrons in the unit cell =      1184.0202240904
    98 Broy./SMGL  0.30E+00    9.3     0.00003553     -3517.6631729652  6.18E-08
 SMEAGOL DEBUG| Number of electrons in the unit cell =      1184.0202241178
    99 Broy./SMGL  0.30E+00    9.2     0.00003553     -3517.6631719141  1.05E-06
 SMEAGOL DEBUG| Number of electrons in the unit cell =      1184.0202240529
   100 Broy./SMGL  0.30E+00    9.3     0.00002103     -3517.6631735391 -1.63E-06
 SMEAGOL DEBUG| Number of electrons in the unit cell =      1184.0202241802
   101 Broy./SMGL  0.30E+00    9.2     0.00014953     -3517.6631685876  4.95E-06
 SMEAGOL DEBUG| Number of electrons in the unit cell =      1184.0202241868
   102 Broy./SMGL  0.30E+00    9.3     0.00014953     -3517.6631752562 -6.67E-06
 SMEAGOL DEBUG| Number of electrons in the unit cell =      1184.0202239799
   103 Broy./SMGL  0.30E+00    9.3     0.00003886     -3517.6631750929  1.63E-07
 SMEAGOL DEBUG| Number of electrons in the unit cell =      1184.0202240454
   104 Broy./SMGL  0.30E+00    9.2     0.00003886     -3517.6631686481  6.44E-06
 SMEAGOL DEBUG| Number of electrons in the unit cell =      1184.0202241666
   105 Broy./SMGL  0.30E+00    9.1     0.00000639     -3517.6631705358 -1.89E-06
 SMEAGOL DEBUG| Number of electrons in the unit cell =      1184.0202241168
   106 Broy./SMGL  0.30E+00    9.3     0.00000542     -3517.6631739247 -3.39E-06
 SMEAGOL DEBUG| Number of electrons in the unit cell =      1184.0202241206
   107 Broy./SMGL  0.30E+00    9.1     0.00000542     -3517.6631727032  1.22E-06
 SMEAGOL DEBUG| Number of electrons in the unit cell =      1184.0202241232
   108 Broy./SMGL  0.30E+00    9.2     0.00005247     -3517.6631729137 -2.10E-07
 SMEAGOL DEBUG| Number of electrons in the unit cell =      1184.0202241177
   109 Broy./SMGL  0.30E+00    9.3     0.00005247     -3517.6631728389  7.48E-08
 SMEAGOL DEBUG| Number of electrons in the unit cell =      1184.0202241368
   110 Broy./SMGL  0.30E+00    9.1     0.00003553     -3517.6631726339  2.05E-07
 SMEAGOL DEBUG| Number of electrons in the unit cell =      1184.0202241402
   111 Broy./SMGL  0.30E+00    9.3     0.00014953     -3517.6631735680 -9.34E-07
 SMEAGOL DEBUG| Number of electrons in the unit cell =      1184.0202241297
   112 Broy./SMGL  0.30E+00    9.3     0.00014953     -3517.6631737382 -1.70E-07
 SMEAGOL DEBUG| Number of electrons in the unit cell =      1184.0202241074
   113 Broy./SMGL  0.30E+00    9.1     0.00003886     -3517.6631732309  5.07E-07
 SMEAGOL DEBUG| Number of electrons in the unit cell =      1184.0202240669
   114 Broy./SMGL  0.30E+00    9.5     0.00003886     -3517.6631717575  1.47E-06
 SMEAGOL DEBUG| Number of electrons in the unit cell =      1184.0202241633
   115 Broy./SMGL  0.30E+00    9.1     0.00002103     -3517.6631701044  1.65E-06
 SMEAGOL DEBUG| Number of electrons in the unit cell =      1184.0202241107
   116 Broy./SMGL  0.30E+00    9.1     0.00002103     -3517.6631744079 -4.30E-06
 SMEAGOL DEBUG| Number of electrons in the unit cell =      1184.0202241282
   117 Broy./SMGL  0.30E+00    9.2     0.00000639     -3517.6631725520  1.86E-06
 SMEAGOL DEBUG| Number of electrons in the unit cell =      1184.0202241201
   118 Broy./SMGL  0.30E+00    9.3     0.00002103     -3517.6631728925 -3.41E-07
 SMEAGOL DEBUG| Number of electrons in the unit cell =      1184.0202241485
   119 Broy./SMGL  0.30E+00    9.2     0.00002103     -3517.6631726074  2.85E-07
 SMEAGOL DEBUG| Number of electrons in the unit cell =      1184.0202241207
   120 Broy./SMGL  0.30E+00    9.2     0.00003553     -3517.6631732841 -6.77E-07
 SMEAGOL DEBUG| Number of electrons in the unit cell =      1184.0202241205
   121 Broy./SMGL  0.30E+00    9.3     0.00014953     -3517.6631726467  6.37E-07
 SMEAGOL DEBUG| Number of electrons in the unit cell =      1184.0202241224
   122 Broy./SMGL  0.30E+00    9.2     0.00014953     -3517.6631726595 -1.28E-08
 SMEAGOL DEBUG| Number of electrons in the unit cell =      1184.0202241325
   123 Broy./SMGL  0.30E+00    9.4     0.00005247     -3517.6631726669 -7.43E-09
 SMEAGOL DEBUG| Number of electrons in the unit cell =      1184.0202241342
   124 Broy./SMGL  0.30E+00    9.2     0.00005247     -3517.6631728439 -1.77E-07
 SMEAGOL DEBUG| Number of electrons in the unit cell =      1184.0202241427
   125 Broy./SMGL  0.30E+00    9.5     0.00003886     -3517.6631727931  5.08E-08
 SMEAGOL DEBUG| Number of electrons in the unit cell =      1184.0202240450
   126 Broy./SMGL  0.30E+00    9.2     0.00000639     -3517.6631732831 -4.90E-07
 SMEAGOL DEBUG| Number of electrons in the unit cell =      1184.0202241473
   127 Broy./SMGL  0.30E+00    9.6     0.00002103     -3517.6631688621  4.42E-06
 SMEAGOL DEBUG| Number of electrons in the unit cell =      1184.0202241277
   128 Broy./SMGL  0.30E+00    9.2     0.00000542     -3517.6631734626 -4.60E-06
 SMEAGOL DEBUG| Number of electrons in the unit cell =      1184.0202241302
   129 Broy./SMGL  0.30E+00    9.1     0.00002103     -3517.6631726241  8.39E-07
 SMEAGOL DEBUG| Number of electrons in the unit cell =      1184.0202241467
   130 Broy./SMGL  0.30E+00    9.1     0.00002533     -3517.6631728638 -2.40E-07
 SMEAGOL DEBUG| Number of electrons in the unit cell =      1184.0202241233
   131 Broy./SMGL  0.30E+00    9.1     0.00002533     -3517.6631731035 -2.40E-07
 SMEAGOL DEBUG| Number of electrons in the unit cell =      1184.0202241543
   132 Broy./SMGL  0.30E+00   10.5     0.00014953     -3517.6631725888  5.15E-07
 SMEAGOL DEBUG| Number of electrons in the unit cell =      1184.0202241439
   133 Broy./SMGL  0.30E+00   10.6     0.00014953     -3517.6631732469 -6.58E-07
 SMEAGOL DEBUG| Number of electrons in the unit cell =      1184.0202241533
   134 Broy./SMGL  0.30E+00    9.3     0.00005247     -3517.6631730709  1.76E-07
 SMEAGOL DEBUG| Number of electrons in the unit cell =      1184.0202241241
   135 Broy./SMGL  0.30E+00    9.2     0.00008993     -3517.6631732121 -1.41E-07
 SMEAGOL DEBUG| Number of electrons in the unit cell =      1184.0202241904
   136 Broy./SMGL  0.30E+00    9.1     0.00008993     -3517.6631726909  5.21E-07
 SMEAGOL DEBUG| Number of electrons in the unit cell =      1184.0202241194
   137 Broy./SMGL  0.30E+00    9.3     0.00000542     -3517.6631740776 -1.39E-06
 SMEAGOL DEBUG| Number of electrons in the unit cell =      1184.0202241129
   138 Broy./SMGL  0.30E+00    9.1     0.00002103     -3517.6631726839  1.39E-06
 SMEAGOL DEBUG| Number of electrons in the unit cell =      1184.0202241371
   139 Broy./SMGL  0.30E+00    9.2     0.00002103     -3517.6631718368  8.47E-07
 SMEAGOL DEBUG| Number of electrons in the unit cell =      1184.0202241474
   140 Broy./SMGL  0.30E+00    9.6     0.00002103     -3517.6631728728 -1.04E-06
 SMEAGOL DEBUG| Number of electrons in the unit cell =      1184.0202241356
   141 Broy./SMGL  0.30E+00    9.4     0.00002103     -3517.6631732000 -3.27E-07
 SMEAGOL DEBUG| Number of electrons in the unit cell =      1184.0202241476
   142 Broy./SMGL  0.30E+00    9.4     0.00014953     -3517.6631726737  5.26E-07
 SMEAGOL DEBUG| Number of electrons in the unit cell =      1184.0202241355
   143 Broy./SMGL  0.30E+00    9.1     0.00014953     -3517.6631730586 -3.85E-07
 SMEAGOL DEBUG| Number of electrons in the unit cell =      1184.0202241358
   144 Broy./SMGL  0.30E+00    9.2     0.00014953     -3517.6631727888  2.70E-07
 SMEAGOL DEBUG| Number of electrons in the unit cell =      1184.0202241279
   145 Broy./SMGL  0.30E+00   12.4     0.00014953     -3517.6631727533  3.55E-08
 SMEAGOL DEBUG| Number of electrons in the unit cell =      1184.0202242264
   146 Broy./SMGL  0.30E+00    9.2     0.00008993     -3517.6631727155  3.78E-08
 SMEAGOL DEBUG| Number of electrons in the unit cell =      1184.0202239936
   147 Broy./SMGL  0.30E+00    9.3     0.00000639     -3517.6631747782 -2.06E-06
 SMEAGOL DEBUG| Number of electrons in the unit cell =      1184.0202241178
   148 Broy./SMGL  0.30E+00    9.2     0.00008993     -3517.6631698940  4.88E-06
 SMEAGOL DEBUG| Number of electrons in the unit cell =      1184.0202241421
   149 Broy./SMGL  0.30E+00    9.2     0.00002103     -3517.6631717946 -1.90E-06
 SMEAGOL DEBUG| Number of electrons in the unit cell =      1184.0202241675
   150 Broy./SMGL  0.30E+00    9.2     0.00002103     -3517.6631729125 -1.12E-06
 SMEAGOL DEBUG| Number of electrons in the unit cell =      1184.0202241391
   151 Broy./SMGL  0.30E+00    9.3     0.00002103     -3517.6631740671 -1.15E-06
 SMEAGOL DEBUG| Number of electrons in the unit cell =      1184.0202241434
   152 Broy./SMGL  0.30E+00    9.4     0.00002103     -3517.6631727970  1.27E-06
 SMEAGOL DEBUG| Number of electrons in the unit cell =      1184.0202241488
   153 Broy./SMGL  0.30E+00    9.2     0.00002103     -3517.6631729537 -1.57E-07
 SMEAGOL DEBUG| Number of electrons in the unit cell =      1184.0202241411
   154 Broy./SMGL  0.30E+00    9.2     0.00014953     -3517.6631731877 -2.34E-07
 SMEAGOL DEBUG| Number of electrons in the unit cell =      1184.0202241459
   155 Broy./SMGL  0.30E+00    9.2     0.00014953     -3517.6631728331  3.55E-07
 SMEAGOL DEBUG| Number of electrons in the unit cell =      1184.0202241365
   156 Broy./SMGL  0.30E+00    9.1     0.00008993     -3517.6631729251 -9.20E-08
 SMEAGOL DEBUG| Number of electrons in the unit cell =      1184.0202240826
   157 Broy./SMGL  0.30E+00    9.1     0.00008993     -3517.6631723434  5.82E-07
 SMEAGOL DEBUG| Number of electrons in the unit cell =      1184.0202241499
   158 Broy./SMGL  0.30E+00    9.4     0.00000035     -3517.6631716466  6.97E-07
 SMEAGOL DEBUG| Number of electrons in the unit cell =      1184.0202241413
   159 Broy./SMGL  0.30E+00    9.1     0.00003554     -3517.6631731075 -1.46E-06
 SMEAGOL DEBUG| Number of electrons in the unit cell =      1184.0202241390
   160 Broy./SMGL  0.30E+00    9.8     0.00003553     -3517.6631728656  2.42E-07
 SMEAGOL DEBUG| Number of electrons in the unit cell =      1184.0202241247
   161 Broy./SMGL  0.30E+00    9.2     0.00002103     -3517.6631727534  1.12E-07
 SMEAGOL DEBUG| Number of electrons in the unit cell =      1184.0202241453
   162 Broy./SMGL  0.30E+00    9.4     0.00000147     -3517.6631720565  6.97E-07
 SMEAGOL DEBUG| Number of electrons in the unit cell =      1184.0202241376
   163 Broy./SMGL  0.30E+00    9.3     0.00002103     -3517.6631729270 -8.71E-07
 SMEAGOL DEBUG| Number of electrons in the unit cell =      1184.0202241467
   164 Broy./SMGL  0.30E+00    9.2     0.00014953     -3517.6631725906  3.36E-07
 SMEAGOL DEBUG| Number of electrons in the unit cell =      1184.0202241508
   165 Broy./SMGL  0.30E+00    9.5     0.00003886     -3517.6631729877 -3.97E-07
 SMEAGOL DEBUG| Number of electrons in the unit cell =      1184.0202241470
   166 Broy./SMGL  0.30E+00    9.2     0.00014953     -3517.6631731200 -1.32E-07
 SMEAGOL DEBUG| Number of electrons in the unit cell =      1184.0202241391
   167 Broy./SMGL  0.30E+00    9.2     0.00000639     -3517.6631729874  1.33E-07
 SMEAGOL DEBUG| Number of electrons in the unit cell =      1184.0202241461
   168 Broy./SMGL  0.30E+00    9.2     0.00002103     -3517.6631726668  3.21E-07
 SMEAGOL DEBUG| Number of electrons in the unit cell =      1184.0202241415
   169 Broy./SMGL  0.30E+00    9.3     0.00014953     -3517.6631728765 -2.10E-07
 SMEAGOL DEBUG| Number of electrons in the unit cell =      1184.0202241411
   170 Broy./SMGL  0.30E+00    9.2     0.00014953     -3517.6631727769  9.96E-08
 SMEAGOL DEBUG| Number of electrons in the unit cell =      1184.0202241179
   171 Broy./SMGL  0.30E+00    9.3     0.00002103     -3517.6631726776  9.92E-08
 SMEAGOL DEBUG| Number of electrons in the unit cell =      1184.0202241480
   172 Broy./SMGL  0.30E+00    9.3     0.00000003     -3517.6631717803  8.97E-07

  *** SCF run converged in   172 steps ***


  Electronic density on regular grids:      -1184.0202241480       -0.0202241480
  Core density on regular grids:             1183.9999998085       -0.0000001915
  Total charge density on r-space grids:       -0.0202243395
  Total charge density g-space grids:          -0.0202243395

  Overlap energy of the core charge distribution:               0.00001347459308
  Self energy of the core charge distribution:              -6148.38221378166963
[...]
     31       Au     1      11.000         11.001                        -0.001
     32       Au     1      11.000         11.001                        -0.001
     33       Au     1      11.000         10.999                         0.001
     34       Au     1      11.000         10.999                         0.001
     35       Au     1      11.000         11.000                         0.000
     36       Au     1      11.000         10.998                         0.002
     37       Au     1      11.000         11.000                        -0.000
     38       Au     1      11.000         11.000                        -0.000
     39       Au     1      11.000         11.000                         0.000
     40       Au     1      11.000         10.999                         0.001
     41       Au     1      11.000         10.978                         0.022
     42       Au     1      11.000         10.986                         0.014
     43       Au     1      11.000         10.998                         0.002
     44       Au     1      11.000         10.998                         0.002
     45       Au     1      11.000         10.993                         0.007
     46       Au     1      11.000         10.977                         0.023
     47       Au     1      11.000         10.998                         0.002
     48       Au     1      11.000         10.998                         0.002
     49       Au     1      11.000         11.043                        -0.043
     50       Au     1      11.000         11.043                        -0.043
     51       Au     1      11.000         10.997                         0.003
     52       Au     1      11.000         11.041                        -0.041
     53       Au     1      11.000         11.003                        -0.003
     54       Au     1      11.000         11.003                        -0.003
     55       Au     1      11.000         10.997                         0.003
     56       Au     1      11.000         11.041                        -0.041
     57       S      2       6.000          5.911                         0.089
     58       C      3       4.000          3.997                         0.003
     59       H      4       1.000          0.960                         0.040
     60       H      4       1.000          0.959                         0.041
     61       C      3       4.000          4.041                        -0.041
     62       C      3       4.000          4.042                        -0.042
     63       C      3       4.000          4.042                        -0.042
     64       C      3       4.000          4.041                        -0.041
     65       H      4       1.000          0.959                         0.041
     66       H      4       1.000          0.960                         0.040
     67       C      3       4.000          3.997                         0.003
     68       S      2       6.000          5.912                         0.088
     69       Au     1      11.000         11.042                        -0.042
     70       Au     1      11.000         11.042                        -0.042
     71       Au     1      11.000         10.997                         0.003
     72       Au     1      11.000         11.040                        -0.040
     73       Au     1      11.000         11.002                        -0.002
     74       Au     1      11.000         11.002                        -0.002
     75       Au     1      11.000         10.996                         0.004
     76       Au     1      11.000         11.040                        -0.040
     77       Au     1      11.000         10.977                         0.023
     78       Au     1      11.000         10.986                         0.014
     79       Au     1      11.000         10.997                         0.003
     80       Au     1      11.000         10.997                         0.003
     81       Au     1      11.000         10.995                         0.005
     82       Au     1      11.000         10.976                         0.024
     83       Au     1      11.000         10.997                         0.003
     84       Au     1      11.000         10.997                         0.003
     85       Au     1      11.000         10.999                         0.001
     86       Au     1      11.000         10.999                         0.001
     87       Au     1      11.000         11.003                        -0.003
     88       Au     1      11.000         10.999                         0.001
     89       Au     1      11.000         11.003                        -0.003
     90       Au     1      11.000         11.003                        -0.003
     91       Au     1      11.000         11.003                        -0.003
     92       Au     1      11.000         10.999                         0.001
     93       Au     1      11.000         11.001                        -0.001
     94       Au     1      11.000         11.002                        -0.002
     95       Au     1      11.000         11.001                        -0.001
     96       Au     1      11.000         11.001                        -0.001
     97       Au     1      11.000         11.001                        -0.001
     98       Au     1      11.000         11.001                        -0.001
     99       Au     1      11.000         11.001                        -0.001
    100       Au     1      11.000         11.001                        -0.001
    101       Au     1      11.000         11.000                        -0.000
    102       Au     1      11.000         11.000                        -0.000
    103       Au     1      11.000         11.000                        -0.000
    104       Au     1      11.000         11.000                        -0.000
    105       Au     1      11.000         11.000                        -0.000
    106       Au     1      11.000         11.000                        -0.000
    107       Au     1      11.000         11.000                        -0.000
    108       Au     1      11.000         11.000                        -0.000
    109       Au     1      11.000         11.000                         0.000
    110       Au     1      11.000         11.000                         0.000
    111       Au     1      11.000         11.000                         0.000
    112       Au     1      11.000         11.000                        -0.000
    113       Au     1      11.000         11.000                        -0.000
    114       Au     1      11.000         11.000                        -0.000
    115       Au     1      11.000         11.000                         0.000
    116       Au     1      11.000         11.000                        -0.000

  Total Charge                                                           -0.020
 !-----------------------------------------------------------------------------!
 Calculating transmission coefficient

 ENERGY| Total FORCE_EVAL ( QS ) energy [a.u.]:            -3517.663171780252014

 -------------------------------------------------------------------------------
 -                                                                             -
 -                                DBCSR STATISTICS                             -
 -                                                                             -
 -------------------------------------------------------------------------------
 COUNTER                                    TOTAL       BLAS       SMM       ACC
 flops inhomo. stacks                           0       0.0%      0.0%      0.0%
 flops total                         0.000000E+00       0.0%      0.0%      0.0%
 flops max/rank                      0.000000E+00       0.0%      0.0%      0.0%
 matmuls inhomo. stacks                         0       0.0%      0.0%      0.0%
 matmuls total                                  0       0.0%      0.0%      0.0%
 number of processed stacks                     0       0.0%      0.0%      0.0%
 average stack size                                     0.0       0.0       0.0
 marketing flops                     0.000000E+00
 -------------------------------------------------------------------------------
 -                                                                             -
 -                      DBCSR MESSAGE PASSING PERFORMANCE                      -
 -                                                                             -
 -------------------------------------------------------------------------------
 ROUTINE             CALLS      AVE VOLUME [Bytes]
 MP_Bcast                1                     12.
 MP_Allreduce        14467                      8.
 MP_Alltoall         10678                 176188.
 -------------------------------------------------------------------------------

 -------------------------------------------------------------------------------
 -                                                                             -
 -                                DBM STATISTICS                               -
 -                                                                             -
 -------------------------------------------------------------------------------
    M  x    N  x    K                                          COUNT     PERCENT
 -------------------------------------------------------------------------------

 -------------------------------------------------------------------------------
 -                                                                             -
 -                                GRID STATISTICS                              -
 -                                                                             -
 -------------------------------------------------------------------------------
 LP    KERNEL             BACKEND                              COUNT     PERCENT
 4     collocate ortho    REF                               16447456      45.24%
 4     integrate ortho    REF                               16352384      44.98%
 3     collocate ortho    REF                                 787323       2.17%
 3     integrate ortho    REF                                 782772       2.15%
 2     collocate ortho    REF                                 567613       1.56%
 2     integrate ortho    REF                                 564332       1.55%
 0     collocate general  REF                                 250560       0.69%
 0     integrate general  REF                                 222720       0.61%
 1     collocate ortho    REF                                 141860       0.39%
 1     integrate ortho    REF                                 141040       0.39%
 0     collocate ortho    REF                                  48786       0.13%
 0     integrate ortho    REF                                  48504       0.13%
 -------------------------------------------------------------------------------

 MEMORY| Estimated peak process memory [MiB]                                 895

 -------------------------------------------------------------------------------
 ----                             MULTIGRID INFO                            ----
 -------------------------------------------------------------------------------
 count for grid        1:         403725          cutoff [a.u.]          200.00
 count for grid        2:         625157          cutoff [a.u.]           66.67
 count for grid        3:         344958          cutoff [a.u.]           22.22
 count for grid        4:         152886          cutoff [a.u.]            7.41
 total gridlevel count  :        1526726

 -------------------------------------------------------------------------------
 -                                                                             -
 -                         MESSAGE PASSING PERFORMANCE                         -
 -                                                                             -
 -------------------------------------------------------------------------------

 ROUTINE             CALLS      AVE VOLUME [Bytes]
 MP_Group                5
 MP_Bcast           126228                   9388.
 MP_Allreduce        12460                 911977.
 MP_Sync              2074
 MP_Alltoall          3121
 MP_ISendRecv       164910                   4000.
 MP_Wait            203007
 MP_ISend            55631                  37039.
 MP_IRecv            55729                  36978.
 MP_Recv             11340                 248832.
 MP_Write_All            2                 248850.
 -------------------------------------------------------------------------------


 -------------------------------------------------------------------------------
 -                                                                             -
 -                           R E F E R E N C E S                               -
 -                                                                             -
 -------------------------------------------------------------------------------
 
 CP2K version 2022.1 (Development Version), the CP2K developers group (2022).
 CP2K is freely available from https://www.cp2k.org/ .

 Kuehne,Thomas D.; Iannuzzi,Marcella; Del Ben,Mauro;
 Rybkin,Vladimir V.; Seewald,Patrick; Stein,Frederick; Laino,Teodoro;
 Khaliullin,Rustam Z.; Schuett,Ole; Schiffmann,Florian; Golze,Dorothea;
 Wilhelm,Jan; Chulkov,Sergey; Bani-Hashemian,Mohammad Hossein;
 Weber,Valery; Borstnik,Urban; Taillefumier,Mathieu;
 Jakobovits,Alice Shoshana; Lazzaro,Alfio; Pabst,Hans; Mueller,Tiziano;
 Schade,Robert; Guidon,Manuel; Andermatt,Samuel; Holmberg,Nico;
 Schenter,Gregory K.; Hehn,Anna; Bussy,Augustin; Belleflamme,Fabian;
 Tabacchi,Gloria; Gloess,Andreas; Lass,Michael; Bethune,Iain;
 Mundy,Christopher J.; Plessl,Christian; Watkins,Matt;
 VandeVondele,Joost; Krack,Matthias; Hutter,Juerg. 
 The Journal of Chemical Physics, 152 (19), (2020). 
 CP2K: An electronic structure and molecular dynamics software package -
 Quickstep: Efficient and accurate electronic structure calculations.
 https://doi.org/10.1063/5.0007045

 Togo, Atsushi; Tanaka, Isao. arXiv, 1808.01590 (2018). 
 Spglib : a software library for crystal symmetry search.
 https://doi.org/xxx

 Schuett, Ole; Messmer, Peter; Hutter, Juerg; VandeVondele, Joost. 
 Electronic Structure Calculations on Graphics Processing Units, John
 Wiley & Sons, Ltd, 173-190 (2016). 
 GPU-Accelerated Sparse Matrix-Matrix Multiplication for
 Linear Scaling Density Functional Theory.
 https://doi.org/10.1002/9781118670712.ch8

 Heinecke, A; Henry, G; Hutchinson, M; Pabst, H. 
 Proceedings of Intl. Supercomputing Conference, 981-991 (2016). 
 LIBXSMM: Accelerating Small Matrix Multiplications
 by Runtime Code Generation.
 https://doi.org/10.1109/SC.2016.83

 Borstnik, U; VandeVondele, J; Weber, V; Hutter, J. 
 PARALLEL COMPUTING, 40 (5-6), 47-58 (2014). 
 Sparse matrix multiplication: The distributed block-compressed sparse
 row library.
 https://doi.org/10.1016/j.parco.2014.03.012

 Hutter, J; Iannuzzi, M; Schiffmann, F; VandeVondele, J. 
 WIREs Comput Mol Sci., 4 (1), 15-25 (2014). 
 CP2K: atomistic simulations of condensed matter systems.
 https://doi.org/10.1002/wcms.1159

 VandeVondele, J; Hutter, J. 
 JOURNAL OF CHEMICAL PHYSICS, 127 (11), 114105 (2007). 
 Gaussian basis sets for accurate calculations on molecular systems in
 gas and condensed phases.
 https://doi.org/10.1063/1.2770708

 Krack, M. 
 THEORETICAL CHEMISTRY ACCOUNTS, 114 (1-3), 145-152 (2005). 
 Pseudopotentials for H to Kr optimized for gradient-corrected
 exchange-correlation functionals.
 https://doi.org/10.1007/s00214-005-0655-y

 VandeVondele, J; Krack, M; Mohamed, F; Parrinello, M; Chassaing, T;
 Hutter, J. COMPUTER PHYSICS COMMUNICATIONS, 167 (2), 103-128 (2005). 
 QUICKSTEP: Fast and accurate density functional calculations using a
 mixed Gaussian and plane waves approach.
 https://doi.org/10.1016/j.cpc.2004.12.014

 Frigo, M; Johnson, SG. 
 PROCEEDINGS OF THE IEEE, 93 (2), 216-231 (2005). 
 The design and implementation of FFTW3.
 https://doi.org/10.1109/JPROC.2004.840301

 Hartwigsen, C; Goedecker, S; Hutter, J. 
 PHYSICAL REVIEW B, 58 (7), 3641-3662 (1998). 
 Relativistic separable dual-space Gaussian pseudopotentials from H to Rn.
 https://doi.org/10.1103/PhysRevB.58.3641

 Lippert, G; Hutter, J; Parrinello, M. 
 MOLECULAR PHYSICS, 92 (3), 477-487 (1997). 
 A hybrid Gaussian and plane wave density functional scheme.
 https://doi.org/10.1080/002689797170220

 Goedecker, S; Teter, M; Hutter, J. 
 PHYSICAL REVIEW B, 54 (3), 1703-1710 (1996). 
 Separable dual-space Gaussian pseudopotentials.
 https://doi.org/10.1103/PhysRevB.54.1703


 -------------------------------------------------------------------------------
 -                                                                             -
 -                                T I M I N G                                  -
 -                                                                             -
 -------------------------------------------------------------------------------
 SUBROUTINE                       CALLS  ASD         SELF TIME        TOTAL TIME
                                MAXIMUM       AVERAGE  MAXIMUM  AVERAGE  MAXIMUM
 CP2K                                 1  1.0    0.037    0.048 1655.204 1655.221
 qs_energies                          1  2.0    0.000    0.001 1654.734 1654.916
 scf_env_do_scf                       1  3.0    0.000    0.001 1636.406 1636.494
 scf_env_do_scf_inner_loop          172  4.0    0.013    0.922 1636.406 1636.493
 run_smeagol_emtrans                173  6.0 1065.340 1245.857 1566.062 1611.669
 qs_scf_new_mos_kp                  172  5.0    0.002    0.004 1550.003 1595.433
 convert_dbcsr_to_replsiesta        346  7.0   16.582   30.450  164.344  176.955
 mp_sum_iv                         1226  7.4  154.499  155.617  154.499  155.617
 dbcsr_replicate                  21798  8.0    1.306    1.982  142.045  143.798
 mp_sum_dv                         1203  7.6   78.838   81.694   78.838   81.694
 dbcsr_finalize                   24300  8.9    0.169    0.246   47.075   76.491
 dbcsr_merge_all                  22562 10.0    0.908    1.386   46.768   76.129
 mp_allgather_i12                 21798  9.0   46.505   73.700   46.505   73.700
 dbcsr_sort_data                  21798 11.0   39.491   68.523   39.491   68.523
 replsiesta_struct_create           173  7.0    9.806   20.716   53.676   64.711
 mp_max_iv                          520  8.0   42.647   64.318   42.647   64.318
 self_consistency_check             172  5.0    0.006    0.008   46.161   58.452
 cp_sm_mix                         7224  6.0    0.079    0.234   46.116   58.417
 mp_max_d                          7226  7.0   46.018   58.341   46.018   58.341
 mp_allgatherv_dv                 21798  9.0   39.473   43.324   39.473   43.324
 -------------------------------------------------------------------------------

 The number of warnings for this run is : 0
 
 -------------------------------------------------------------------------------
  **** **** ******  **  PROGRAM ENDED AT                 2023-03-12 14:14:25.886
 ***** ** ***  *** **   PROGRAM RAN ON                     cn1028.scarf.rl.ac.uk
 **    ****   ******    PROGRAM RAN BY                                 scarf1157
 ***** **    ** ** **   PROGRAM PROCESS ID                                  1462
  **** **  *******  **  PROGRAM STOPPED IN /work4/scd/scarf1157/work/testing/cp2
                                           k-smeagol/bdt/cp2k/hollow-site/transp
                                           ort-cp2k/5-4/geometry-ordered/3x3-4/s
                                           z/bulk_layers-4/transmission/exp/sz/s
                                           ergey/kpoints_bulk-31_em-1-1-1_hlb-t-
                                           11.03197_scf-500
