 DBCSR| CPU Multiplication driver                                           XSMM
 DBCSR| Multrec recursion limit                                              512
 DBCSR| Multiplication stack size                                           1000
 DBCSR| Maximum elements for images                                    UNLIMITED
 DBCSR| Multiplicative factor virtual images                                   1
 DBCSR| Use multiplication densification                                       T
 DBCSR| Multiplication size stacks                                             3
 DBCSR| Use memory pool for CPU allocation                                     F
 DBCSR| Number of 3D layers                                               SINGLE
 DBCSR| Use MPI memory allocation                                              F
 DBCSR| Use RMA algorithm                                                      F
 DBCSR| Use Communication thread                                               T
 DBCSR| Communication thread load                                             87
 DBCSR| MPI: My node id                                                        0
 DBCSR| MPI: Number of nodes                                                 240
 DBCSR| OMP: Current number of threads                                         1
 DBCSR| OMP: Max number of threads                                             1
 DBCSR| Split modifier for TAS multiplication algorithm                  1.0E+00


  **** **** ******  **  PROGRAM STARTED AT               2023-03-23 12:14:29.775
 ***** ** ***  *** **   PROGRAM STARTED ON                 cn1064.scarf.rl.ac.uk
 **    ****   ******    PROGRAM STARTED BY                             scarf1157
 ***** **    ** ** **   PROGRAM PROCESS ID                                 18381
  **** **  *******  **  PROGRAM STARTED IN /work4/scd/scarf1157/work/testing/cp2
                                           k-smeagol/bdt/cp2k/hollow-site/transp
                                           ort-cp2k/5-4/geometry-ordered/3x3-4/s
                                           z/bulk_layers-4/transmission/exp/capa
                                           citor/sergey-equal/auto/kpoints-20_te
                                           st/chris_kpoints-2-2-20_hlb-auto-NIMA
                                           GES_IJ

 CP2K| version string:                 CP2K version 2022.1 (Development Version)
 CP2K| source code revision number:                                  git:c53e391
 CP2K| cp2kflags: omp fftw3 libxc parallel mpi3 scalapack xsmm spglib           
 CP2K| is freely available from                            https://www.cp2k.org/
 CP2K| Program compiled at                          Thu  9 Mar 18:17:55 GMT 2023
 CP2K| Program compiled on                                 cn1108.scarf.rl.ac.uk
 CP2K| Program compiled for                                                local
 CP2K| Data directory path    /home/vol07/scarf1157/code/smeagol/cp2k-smeagol/sc
 CP2K| Input file name                                                   4_V.inp

 GLOBAL| Force Environment number                                              1
 GLOBAL| Basis set file name                                        BASIS_MOLOPT
 GLOBAL| Potential file name                                      GTH_POTENTIALS
 GLOBAL| MM Potential file name                                     MM_POTENTIAL
 GLOBAL| Coordinate file name                                             em.xyz
 GLOBAL| Method name                                                        CP2K
 GLOBAL| Project name                                                          V
 GLOBAL| Run type                                                         ENERGY
 GLOBAL| FFT library                                                       FFTW3
 GLOBAL| Diagonalization library                                       ScaLAPACK
 GLOBAL| Orthonormality check for eigenvectors                          DISABLED
 GLOBAL| Matrix multiplication library                                 ScaLAPACK
 GLOBAL| All-to-all communication in single precision                          F
 GLOBAL| FFTs using library dependent lengths                                  T
 GLOBAL| Grid backend                                                       AUTO
 GLOBAL| Global print level                                               MEDIUM
 GLOBAL| MPI I/O enabled                                                       T
 GLOBAL| Total number of message passing processes                           240
 GLOBAL| Number of threads for this process                                    1
 GLOBAL| This output is from process                                           0
 GLOBAL| Stack size for threads created by OpenMP (OMP_STACKSIZE)        default
 GLOBAL| CPU model name                         AMD EPYC 7502P 32-Core Processor
 GLOBAL| CPUID                                                              1002

 MEMORY| system memory details [Kb]
 MEMORY|                        rank 0           min           max       average
 MEMORY| MemTotal            263896984     263896980     263896984     263896983
 MEMORY| MemFree             160036400     150779276     202149336     180865059
 MEMORY| Buffers                  2564          2564          2568          2565
 MEMORY| Cached               84571004      44537356      95895852      66082620
 MEMORY| Slab                  1375676       1178248       1375676       1264786
 MEMORY| SReclaimable           823732        675640        823732        742660
 MEMORY| MemLikelyFree       245433700     245433700     249114628     247692905


 *** Fundamental physical constants (SI units) ***

 *** Literature: B. J. Mohr and B. N. Taylor,
 ***             CODATA recommended values of the fundamental physical
 ***             constants: 2006, Web Version 5.1
 ***             http://physics.nist.gov/constants

 Speed of light in vacuum [m/s]                             2.99792458000000E+08
 Magnetic constant or permeability of vacuum [N/A**2]       1.25663706143592E-06
 Electric constant or permittivity of vacuum [F/m]          8.85418781762039E-12
 Planck constant (h) [J*s]                                  6.62606896000000E-34
 Planck constant (h-bar) [J*s]                              1.05457162825177E-34
 Elementary charge [C]                                      1.60217648700000E-19
 Electron mass [kg]                                         9.10938215000000E-31
 Electron g factor [ ]                                     -2.00231930436220E+00
 Proton mass [kg]                                           1.67262163700000E-27
 Fine-structure constant                                    7.29735253760000E-03
 Rydberg constant [1/m]                                     1.09737315685270E+07
 Avogadro constant [1/mol]                                  6.02214179000000E+23
 Boltzmann constant [J/K]                                   1.38065040000000E-23
 Atomic mass unit [kg]                                      1.66053878200000E-27
 Bohr radius [m]                                            5.29177208590000E-11

 *** Conversion factors ***

 [u] -> [a.u.]                                              1.82288848426455E+03
 [Angstrom] -> [Bohr] = [a.u.]                              1.88972613288564E+00
 [a.u.] = [Bohr] -> [Angstrom]                              5.29177208590000E-01
 [a.u.] -> [s]                                              2.41888432650478E-17
 [a.u.] -> [fs]                                             2.41888432650478E-02
 [a.u.] -> [J]                                              4.35974393937059E-18
 [a.u.] -> [N]                                              8.23872205491840E-08
 [a.u.] -> [K]                                              3.15774647902944E+05
 [a.u.] -> [kJ/mol]                                         2.62549961709828E+03
 [a.u.] -> [kcal/mol]                                       6.27509468713739E+02
 [a.u.] -> [Pa]                                             2.94210107994716E+13
 [a.u.] -> [bar]                                            2.94210107994716E+08
 [a.u.] -> [atm]                                            2.90362800883016E+08
 [a.u.] -> [eV]                                             2.72113838565563E+01
 [a.u.] -> [Hz]                                             6.57968392072181E+15
 [a.u.] -> [1/cm] (wave numbers)                            2.19474631370540E+05
 [a.u./Bohr**2] -> [1/cm]                                   5.14048714338585E+03
 

 CELL_TOP| Volume [angstrom^3]:                                      2357.480286
 CELL_TOP| Vector a [angstrom     8.336     0.000     0.000   |a| =     8.336000
 CELL_TOP| Vector b [angstrom     0.000     8.336     0.000   |b| =     8.336000
 CELL_TOP| Vector c [angstrom     0.000     0.000    33.926   |c| =    33.926000
 CELL_TOP| Angle (b,c), alpha [degree]:                                90.000000
 CELL_TOP| Angle (a,c), beta  [degree]:                                90.000000
 CELL_TOP| Angle (a,b), gamma [degree]:                                90.000000
 CELL_TOP| Numerically orthorhombic:                                         YES
 CELL_TOP| Periodicity                                                       XYZ

 GENERATE|  Preliminary Number of Bonds generated:                             0
 GENERATE|  Achieved consistency in connectivity generation.

 CELL| Volume [angstrom^3]:                                          2357.480286
 CELL| Vector a [angstrom]:       8.336     0.000     0.000   |a| =     8.336000
 CELL| Vector b [angstrom]:       0.000     8.336     0.000   |b| =     8.336000
 CELL| Vector c [angstrom]:       0.000     0.000    33.926   |c| =    33.926000
 CELL| Angle (b,c), alpha [degree]:                                    90.000000
 CELL| Angle (a,c), beta  [degree]:                                    90.000000
 CELL| Angle (a,b), gamma [degree]:                                    90.000000
 CELL| Numerically orthorhombic:                                             YES
 CELL| Periodicity                                                           XYZ

 CELL_REF| Volume [angstrom^3]:                                      2357.480286
 CELL_REF| Vector a [angstrom     8.336     0.000     0.000   |a| =     8.336000
 CELL_REF| Vector b [angstrom     0.000     8.336     0.000   |b| =     8.336000
 CELL_REF| Vector c [angstrom     0.000     0.000    33.926   |c| =    33.926000
 CELL_REF| Angle (b,c), alpha [degree]:                                90.000000
 CELL_REF| Angle (a,c), beta  [degree]:                                90.000000
 CELL_REF| Angle (a,b), gamma [degree]:                                90.000000
 CELL_REF| Numerically orthorhombic:                                         YES
 CELL_REF| Periodicity                                                       XYZ

 *******************************************************************************
                                    Kpoints
 *******************************************************************************
 BRILLOUIN| K-point scheme                                        Monkhorst-Pack
 BRILLOUIN| K-Point grid                                             2    2    1
 BRILLOUIN| Accuracy in Symmetry determination                      0.100000E-07
 BRILLOUIN| K-Point point group symmetrization                               OFF
 BRILLOUIN| Wavefunction type                                            COMPLEX
 BRILLOUIN| Use full k-point grid     
 BRILLOUIN| List of Kpoints [2 Pi/Bohr]                                        4
 BRILLOUIN| Number           Weight            X              Y              Z
 BRILLOUIN|     1           0.25000       -0.25000       -0.25000        0.00000
 BRILLOUIN|     2           0.25000       -0.25000        0.25000        0.00000
 BRILLOUIN|     3           0.25000        0.25000       -0.25000        0.00000
 BRILLOUIN|     4           0.25000        0.25000        0.25000        0.00000
 *******************************************************************************

 *******************************************************************************
 *******************************************************************************
 **                                                                           **
 **     #####                         ##              ##                      **
 **    ##   ##            ##          ##              ##                      **
 **   ##     ##                       ##            ######                    **
 **   ##     ##  ##   ##  ##   #####  ##  ##   ####   ##    #####    #####    **
 **   ##     ##  ##   ##  ##  ##      ## ##   ##      ##   ##   ##  ##   ##   **
 **   ##  ## ##  ##   ##  ##  ##      ####     ###    ##   ######   ######    **
 **    ##  ###   ##   ##  ##  ##      ## ##      ##   ##   ##       ##        **
 **     #######   #####   ##   #####  ##  ##  ####    ##    #####   ##        **
 **           ##                                                    ##        **
 **                                                                           **
 **                                                ... make the atoms dance   **
 **                                                                           **
 **            Copyright (C) by CP2K developers group (2000-2022)             **
 **                      J. Chem. Phys. 152, 194103 (2020)                    **
 **                                                                           **
 *******************************************************************************

 DFT| Spin restricted Kohn-Sham (RKS) calculation                            RKS
 DFT| Multiplicity                                                             1
 DFT| Number of spin states                                                    1
 DFT| Charge                                                                   0
 DFT| Self-interaction correction (SIC)                                       NO
 DFT| Cutoffs: density                                              1.000000E-10
 DFT|          gradient                                             1.000000E-10
 DFT|          tau                                                  1.000000E-10
 DFT|          cutoff_smoothing_range                               0.000000E+00
 DFT| XC density smoothing                                                  NONE
 DFT| XC derivatives                                                          PW

 FUNCTIONAL| PADE:
 FUNCTIONAL| S. Goedecker, M. Teter and J. Hutter, Phys. Rev. B 54, 1703 (1996) 


 QS| Method:                                                                 GPW
 QS| Density plane wave grid type                        NON-SPHERICAL FULLSPACE
 QS| Number of grid levels:                                                    4
 QS| Density cutoff [a.u.]:                                                200.0
 QS| Multi grid cutoff [a.u.]: 1) grid level                               200.0
 QS|                           2) grid level                                66.7
 QS|                           3) grid level                                22.2
 QS|                           4) grid level                                 7.4
 QS| Grid level progression factor:                                          3.0
 QS| Relative density cutoff [a.u.]:                                        20.0
 QS| Interaction thresholds: eps_pgf_orb:                                1.0E-05
 QS|                         eps_filter_matrix:                          0.0E+00
 QS|                         eps_core_charge:                            1.0E-12
 QS|                         eps_rho_gspace:                             1.0E-10
 QS|                         eps_rho_rspace:                             1.0E-10
 QS|                         eps_gvg_rspace:                             1.0E-05
 QS|                         eps_ppl:                                    1.0E-02
 QS|                         eps_ppnl:                                   1.0E-07


 ATOMIC KIND INFORMATION

  1. Atomic kind: Au                                    Number of atoms:      96

     Orbital Basis Set                                         SZV-MOLOPT-SR-GTH

       Number of orbital shell sets:                                           1
       Number of orbital shells:                                               3
       Number of primitive Cartesian functions:                                5
       Number of Cartesian basis functions:                                   10
       Number of spherical basis functions:                                    9
       Norm type:                                                              2

       Normalised Cartesian orbitals:

                        Set   Shell   Orbital            Exponent    Coefficient

                          1       1    2s                2.950008       0.074626
                                                         1.563057      -0.007898
                                                         0.666664      -0.297688
                                                         0.251083       0.136809
                                                         0.081714       0.088198

                          1       2    3px               2.950008       0.148824
                                                         1.563057       0.025430
                                                         0.666664      -0.123003
                                                         0.251083       0.033648
                                                         0.081714       0.059008
                          1       2    3py               2.950008       0.148824
                                                         1.563057       0.025430
                                                         0.666664      -0.123003
                                                         0.251083       0.033648
                                                         0.081714       0.059008
                          1       2    3pz               2.950008       0.148824
                                                         1.563057       0.025430
                                                         0.666664      -0.123003
                                                         0.251083       0.033648
                                                         0.081714       0.059008

                          1       3    4dx2              2.950008      -0.139595
                                                         1.563057       1.319655
                                                         0.666664       0.377081
                                                         0.251083       0.046872
                                                         0.081714       0.001393
                          1       3    4dxy              2.950008      -0.241786
                                                         1.563057       2.285709
                                                         0.666664       0.653124
                                                         0.251083       0.081185
                                                         0.081714       0.002412
                          1       3    4dxz              2.950008      -0.241786
                                                         1.563057       2.285709
                                                         0.666664       0.653124
                                                         0.251083       0.081185
                                                         0.081714       0.002412
                          1       3    4dy2              2.950008      -0.139595
                                                         1.563057       1.319655
                                                         0.666664       0.377081
                                                         0.251083       0.046872
                                                         0.081714       0.001393
                          1       3    4dyz              2.950008      -0.241786
                                                         1.563057       2.285709
                                                         0.666664       0.653124
                                                         0.251083       0.081185
                                                         0.081714       0.002412
                          1       3    4dz2              2.950008      -0.139595
                                                         1.563057       1.319655
                                                         0.666664       0.377081
                                                         0.251083       0.046872
                                                         0.081714       0.001393

       Atomic covalent radius [Angstrom]:                                  1.340

       Atomic van der Waals radius [Angstrom]:                             1.660

     GTH Potential information for                                  GTH-PADE-q11

       Description:                       Goedecker-Teter-Hutter pseudopotential
                                           Goedecker et al., PRB 54, 1703 (1996)
                                          Hartwigsen et al., PRB 58, 3641 (1998)
                                                      Krack, TCA 114, 145 (2005)

       Gaussian exponent of the core charge distribution:               1.436369
       Electronic configuration (s p d ...):                           1   0  10

       Parameters of the local part of the GTH pseudopotential:

                          rloc        C1          C2          C3          C4
                        0.590000   11.604428

       Parameters of the non-local part of the GTH pseudopotential:

                   l      r(l)      h(i,j,l)

                   0    0.521180    2.538614   -1.046137
                                   -1.046137    2.701113
                   1    0.630613    0.394853   -0.869592
                                   -0.869592    2.057831
                   2    0.440706   -4.719070    0.727771
                                    0.727771   -1.650429


 MOLECULE KIND INFORMATION


 All atoms are their own molecule, skipping detailed information


 TOTAL NUMBERS AND MAXIMUM NUMBERS

  Total number of            - Atomic kinds:                                   1
                             - Atoms:                                         96
                             - Shell sets:                                    96
                             - Shells:                                       288
                             - Primitive Cartesian functions:                480
                             - Cartesian basis functions:                    960
                             - Spherical basis functions:                    864

  Maximum angular momentum of- Orbital basis functions:                        2
                             - Local part of the GTH pseudopotential:          0
                             - Non-local part of the GTH pseudopotential:      4


 MODULE QUICKSTEP: ATOMIC COORDINATES IN ANGSTROM

   Atom Kind Element         X             Y             Z       Z(eff)     Mass
      1    1 Au   79      0.000000      0.000000      0.000000  11.0000 196.9666
      2    1 Au   79      0.000000      4.168000      0.000000  11.0000 196.9666
      3    1 Au   79      2.084000      2.084000      0.000000  11.0000 196.9666
      4    1 Au   79      2.084000      6.252000      0.000000  11.0000 196.9666
      5    1 Au   79      4.168000      0.000000      0.000000  11.0000 196.9666
      6    1 Au   79      4.168000      4.168000      0.000000  11.0000 196.9666
      7    1 Au   79      6.252000      2.084000      0.000000  11.0000 196.9666
      8    1 Au   79      6.252000      6.252000      0.000000  11.0000 196.9666
      9    1 Au   79      0.000000      2.084000      2.084000  11.0000 196.9666
     10    1 Au   79      0.000000      6.252000      2.084000  11.0000 196.9666
     11    1 Au   79      2.084000      0.000000      2.084000  11.0000 196.9666
     12    1 Au   79      2.084000      4.168000      2.084000  11.0000 196.9666
     13    1 Au   79      4.168000      2.084000      2.084000  11.0000 196.9666
     14    1 Au   79      4.168000      6.252000      2.084000  11.0000 196.9666
     15    1 Au   79      6.252000      0.000000      2.084000  11.0000 196.9666
     16    1 Au   79      6.252000      4.168000      2.084000  11.0000 196.9666
     17    1 Au   79      0.000000      0.000000      4.168000  11.0000 196.9666
     18    1 Au   79      0.000000      4.168000      4.168000  11.0000 196.9666
     19    1 Au   79      2.084000      2.084000      4.168000  11.0000 196.9666
     20    1 Au   79      2.084000      6.252000      4.168000  11.0000 196.9666
     21    1 Au   79      4.168000      0.000000      4.168000  11.0000 196.9666
     22    1 Au   79      4.168000      4.168000      4.168000  11.0000 196.9666
     23    1 Au   79      6.252000      2.084000      4.168000  11.0000 196.9666
     24    1 Au   79      6.252000      6.252000      4.168000  11.0000 196.9666
     25    1 Au   79      0.000000      2.084000      6.252000  11.0000 196.9666
     26    1 Au   79      0.000000      6.252000      6.252000  11.0000 196.9666
     27    1 Au   79      2.084000      0.000000      6.252000  11.0000 196.9666
     28    1 Au   79      2.084000      4.168000      6.252000  11.0000 196.9666
     29    1 Au   79      4.168000      2.084000      6.252000  11.0000 196.9666
     30    1 Au   79      4.168000      6.252000      6.252000  11.0000 196.9666
     31    1 Au   79      6.252000      0.000000      6.252000  11.0000 196.9666
     32    1 Au   79      6.252000      4.168000      6.252000  11.0000 196.9666
     33    1 Au   79      0.000000      0.000000      8.336000  11.0000 196.9666
     34    1 Au   79      0.000000      4.168000      8.336000  11.0000 196.9666
     35    1 Au   79      2.084000      2.084000      8.336000  11.0000 196.9666
     36    1 Au   79      2.084000      6.252000      8.336000  11.0000 196.9666
     37    1 Au   79      4.168000      0.000000      8.336000  11.0000 196.9666
     38    1 Au   79      4.168000      4.168000      8.336000  11.0000 196.9666
     39    1 Au   79      6.252000      2.084000      8.336000  11.0000 196.9666
     40    1 Au   79      6.252000      6.252000      8.336000  11.0000 196.9666
     41    1 Au   79      0.000000      2.084000     10.420000  11.0000 196.9666
     42    1 Au   79      0.000000      6.252000     10.420000  11.0000 196.9666
     43    1 Au   79      2.084000      0.000000     10.420000  11.0000 196.9666
     44    1 Au   79      2.084000      4.168000     10.420000  11.0000 196.9666
     45    1 Au   79      4.168000      2.084000     10.420000  11.0000 196.9666
     46    1 Au   79      4.168000      6.252000     10.420000  11.0000 196.9666
     47    1 Au   79      6.252000      0.000000     10.420000  11.0000 196.9666
     48    1 Au   79      6.252000      4.168000     10.420000  11.0000 196.9666
     49    1 Au   79      0.000000      0.000000     21.422000  11.0000 196.9666
     50    1 Au   79      0.000000      4.168000     21.422000  11.0000 196.9666
     51    1 Au   79      2.084000      2.084000     21.422000  11.0000 196.9666
     52    1 Au   79      2.084000      6.252000     21.422000  11.0000 196.9666
     53    1 Au   79      4.168000      0.000000     21.422000  11.0000 196.9666
     54    1 Au   79      4.168000      4.168000     21.422000  11.0000 196.9666
     55    1 Au   79      6.252000      2.084000     21.422000  11.0000 196.9666
     56    1 Au   79      6.252000      6.252000     21.422000  11.0000 196.9666
     57    1 Au   79      0.000000      2.084000     23.506000  11.0000 196.9666
     58    1 Au   79      0.000000      6.252000     23.506000  11.0000 196.9666
     59    1 Au   79      2.084000      0.000000     23.506000  11.0000 196.9666
     60    1 Au   79      2.084000      4.168000     23.506000  11.0000 196.9666
     61    1 Au   79      4.168000      2.084000     23.506000  11.0000 196.9666
     62    1 Au   79      4.168000      6.252000     23.506000  11.0000 196.9666
     63    1 Au   79      6.252000      0.000000     23.506000  11.0000 196.9666
     64    1 Au   79      6.252000      4.168000     23.506000  11.0000 196.9666
     65    1 Au   79      0.000000      0.000000     25.590000  11.0000 196.9666
     66    1 Au   79      0.000000      4.168000     25.590000  11.0000 196.9666
     67    1 Au   79      2.084000      2.084000     25.590000  11.0000 196.9666
     68    1 Au   79      2.084000      6.252000     25.590000  11.0000 196.9666
     69    1 Au   79      4.168000      0.000000     25.590000  11.0000 196.9666
     70    1 Au   79      4.168000      4.168000     25.590000  11.0000 196.9666
     71    1 Au   79      6.252000      2.084000     25.590000  11.0000 196.9666
     72    1 Au   79      6.252000      6.252000     25.590000  11.0000 196.9666
     73    1 Au   79      0.000000      2.084000     27.674000  11.0000 196.9666
     74    1 Au   79      0.000000      6.252000     27.674000  11.0000 196.9666
     75    1 Au   79      2.084000      0.000000     27.674000  11.0000 196.9666
     76    1 Au   79      2.084000      4.168000     27.674000  11.0000 196.9666
     77    1 Au   79      4.168000      2.084000     27.674000  11.0000 196.9666
     78    1 Au   79      4.168000      6.252000     27.674000  11.0000 196.9666
     79    1 Au   79      6.252000      0.000000     27.674000  11.0000 196.9666
     80    1 Au   79      6.252000      4.168000     27.674000  11.0000 196.9666
     81    1 Au   79      0.000000      0.000000     29.758000  11.0000 196.9666
     82    1 Au   79      0.000000      4.168000     29.758000  11.0000 196.9666
     83    1 Au   79      2.084000      2.084000     29.758000  11.0000 196.9666
     84    1 Au   79      2.084000      6.252000     29.758000  11.0000 196.9666
     85    1 Au   79      4.168000      0.000000     29.758000  11.0000 196.9666
     86    1 Au   79      4.168000      4.168000     29.758000  11.0000 196.9666
     87    1 Au   79      6.252000      2.084000     29.758000  11.0000 196.9666
     88    1 Au   79      6.252000      6.252000     29.758000  11.0000 196.9666
     89    1 Au   79      0.000000      2.084000     31.842000  11.0000 196.9666
     90    1 Au   79      0.000000      6.252000     31.842000  11.0000 196.9666
     91    1 Au   79      2.084000      0.000000     31.842000  11.0000 196.9666
     92    1 Au   79      2.084000      4.168000     31.842000  11.0000 196.9666
     93    1 Au   79      4.168000      2.084000     31.842000  11.0000 196.9666
     94    1 Au   79      4.168000      6.252000     31.842000  11.0000 196.9666
     95    1 Au   79      6.252000      0.000000     31.842000  11.0000 196.9666
     96    1 Au   79      6.252000      4.168000     31.842000  11.0000 196.9666



 SCF PARAMETERS         Density guess:                                   RESTART
                        --------------------------------------------------------
                        max_scf:                                             500
                        max_scf_history:                                       0
                        max_diis:                                              4
                        --------------------------------------------------------
                        eps_scf:                                        1.00E-07
                        eps_scf_history:                                0.00E+00
                        eps_diis:                                       1.00E-01
                        eps_eigval:                                     1.00E-05
                        --------------------------------------------------------
                        level_shift [a.u.]:                             0.000000
                        added MOs                                       100    0
                        --------------------------------------------------------
                        Mixing method:                            BROYDEN_MIXING
                                                charge density mixing in g-space
                        --------------------------------------------------------
                        Smear method:                                FERMI_DIRAC
                        Electronic temperature [K]:                        293.0
                        Electronic temperature [a.u.]:                  9.28E-04
                        Accuracy threshold:                             1.00E-10
                        --------------------------------------------------------
                        No outer SCF

 PW_GRID| Information for grid number                                          1
 PW_GRID| Grid distributed over                                   240 processors
 PW_GRID| Real space group dimensions                                    12   20
 PW_GRID| the grid is blocked:                                               YES
 PW_GRID| Cutoff [a.u.]                                                    200.0
 PW_GRID| spherical cutoff:                                                   NO
 PW_GRID|   Bounds   1            -52      52                Points:         105
 PW_GRID|   Bounds   2            -52      52                Points:         105
 PW_GRID|   Bounds   3           -210     209                Points:         420
 PW_GRID| Volume element (a.u.^3)  0.3436E-02     Volume (a.u.^3)     15909.0657
 PW_GRID| Grid span                                                    FULLSPACE
 PW_GRID|   Distribution                         Average         Max         Min
 PW_GRID|   G-Vectors                            19293.8       19845       17640
 PW_GRID|   G-Rays                                 183.8         189         168
 PW_GRID|   Real Space Points                    19293.8       19845       17640

 PW_GRID| Information for grid number                                          2
 PW_GRID| Number of the reference grid                                         1
 PW_GRID| Grid distributed over                                   240 processors
 PW_GRID| Real space group dimensions                                    12   20
 PW_GRID| the grid is blocked:                                                NO
 PW_GRID| Cutoff [a.u.]                                                     66.7
 PW_GRID| spherical cutoff:                                                   NO
 PW_GRID|   Bounds   1            -30      29                Points:          60
 PW_GRID|   Bounds   2            -30      29                Points:          60
 PW_GRID|   Bounds   3           -120     119                Points:         240
 PW_GRID| Volume element (a.u.^3)  0.1841E-01     Volume (a.u.^3)     15909.0657
 PW_GRID| Grid span                                                    FULLSPACE
 PW_GRID|   Distribution                         Average         Max         Min
 PW_GRID|   G-Vectors                             3600.0       11340           0
 PW_GRID|   G-Rays                                  60.0         189           0
 PW_GRID|   Real Space Points                     3600.0        3600        3600

 PW_GRID| Information for grid number                                          3
 PW_GRID| Number of the reference grid                                         1
 PW_GRID| Grid distributed over                                   240 processors
 PW_GRID| Real space group dimensions                                    12   20
 PW_GRID| the grid is blocked:                                                NO
 PW_GRID| Cutoff [a.u.]                                                     22.2
 PW_GRID| spherical cutoff:                                                   NO
 PW_GRID|   Bounds   1            -16      16                Points:          33
 PW_GRID|   Bounds   2            -16      16                Points:          33
 PW_GRID|   Bounds   3            -70      69                Points:         140
 PW_GRID| Volume element (a.u.^3)  0.1043         Volume (a.u.^3)     15909.0657
 PW_GRID| Grid span                                                    FULLSPACE
 PW_GRID|   Distribution                         Average         Max         Min
 PW_GRID|   G-Vectors                              635.2        6237           0
 PW_GRID|   G-Rays                                  19.2         189           0
 PW_GRID|   Real Space Points                      635.2         840         280

 PW_GRID| Information for grid number                                          4
 PW_GRID| Number of the reference grid                                         1
 PW_GRID| Grid distributed over                                   240 processors
 PW_GRID| Real space group dimensions                                    12   20
 PW_GRID| the grid is blocked:                                                NO
 PW_GRID| Cutoff [a.u.]                                                      7.4
 PW_GRID| spherical cutoff:                                                   NO
 PW_GRID|   Bounds   1            -10       9                Points:          20
 PW_GRID|   Bounds   2            -10       9                Points:          20
 PW_GRID|   Bounds   3            -40      39                Points:          80
 PW_GRID| Volume element (a.u.^3)  0.4972         Volume (a.u.^3)     15909.0657
 PW_GRID| Grid span                                                    FULLSPACE
 PW_GRID|   Distribution                         Average         Max         Min
 PW_GRID|   G-Vectors                              133.3        3780           0
 PW_GRID|   G-Rays                                   6.7         189           0
 PW_GRID|   Real Space Points                      133.3         160          80

 POISSON| Solver                                                        PERIODIC
 POISSON| Periodicity                                                        XYZ

 RS_GRID| Information for grid number                                          1
 RS_GRID|   Bounds   1            -52      52                Points:         105
 RS_GRID|   Bounds   2            -52      52                Points:         105
 RS_GRID|   Bounds   3           -210     209                Points:         420
 RS_GRID| Real space distribution over                                  8 groups
 RS_GRID| Real space distribution along direction                              2
 RS_GRID| Border size                                                         30
 RS_GRID| Real space distribution over                                 30 groups
 RS_GRID| Real space distribution along direction                              3
 RS_GRID| Border size                                                         30
 RS_GRID|   Distribution                         Average         Max         Min
 RS_GRID|   Planes                                  73.1          74          73
 RS_GRID|   Distribution                         Average         Max         Min
 RS_GRID|   Planes                                  74.0          74          74

 RS_GRID| Information for grid number                                          2
 RS_GRID|   Bounds   1            -30      29                Points:          60
 RS_GRID|   Bounds   2            -30      29                Points:          60
 RS_GRID|   Bounds   3           -120     119                Points:         240
 RS_GRID| Real space distribution over                                  8 groups
 RS_GRID| Real space distribution along direction                              2
 RS_GRID| Border size                                                         20
 RS_GRID| Real space distribution over                                 30 groups
 RS_GRID| Real space distribution along direction                              3
 RS_GRID| Border size                                                         20
 RS_GRID|   Distribution                         Average         Max         Min
 RS_GRID|   Planes                                  47.5          48          47
 RS_GRID|   Distribution                         Average         Max         Min
 RS_GRID|   Planes                                  48.0          48          48

 RS_GRID| Information for grid number                                          3
 RS_GRID|   Bounds   1            -16      16                Points:          33
 RS_GRID|   Bounds   2            -16      16                Points:          33
 RS_GRID|   Bounds   3            -70      69                Points:         140
 RS_GRID| Real space fully replicated
 RS_GRID| Group size                                                           1

 RS_GRID| Information for grid number                                          4
 RS_GRID|   Bounds   1            -10       9                Points:          20
 RS_GRID|   Bounds   2            -10       9                Points:          20
 RS_GRID|   Bounds   3            -40      39                Points:          80
 RS_GRID| Real space fully replicated
 RS_GRID| Group size                                                           1

 KPOINTS| Number of kpoint groups                                              1
 KPOINTS| Size of each kpoint group                                          240
 KPOINTS| Number of kpoints per group                                          4

 Number of electrons:                                                       1056
 Number of occupied orbitals:                                                528
 Number of molecular orbitals:                                               628

 Number of orbital functions:                                                864
 Number of independent orbital functions:                                    864

 Extrapolation method: initial_guess

 *** WARNING in qs_initial_guess.F:310 :: User requested to restart the    ***
 *** wavefunction from the file named: 0V-RESTART_0.kp. This file does not ***
 *** exist. Please check the existence of the file or change properly the  ***
 *** value of the keyword WFN_RESTART_FILE_NAME. Calculation continues     ***
 *** using ATOMIC GUESS.                                                   ***


 Atomic guess: The first density matrix is obtained in terms of atomic orbitals
               and electronic configurations assigned to each atomic kind

 Guess for atomic kind: Au

 Electronic structure
    Total number of core electrons                                         68.00
    Total number of valence electrons                                      11.00
    Total number of electrons                                              79.00
    Multiplicity                                                   not specified
    S   [  2.00  2.00  2.00  2.00  2.00] 1.00
    P   [  6.00  6.00  6.00  6.00]
    D   [ 10.00 10.00]10.00
    F   [ 14.00]


 *******************************************************************************
                  Iteration          Convergence                     Energy [au]
 *******************************************************************************
                          1         0.00000                     -33.033218197848

 Energy components [Hartree]           Total Energy ::          -33.033218197848
                                        Band Energy ::           -1.147505983145
                                     Kinetic Energy ::           24.744064437587
                                   Potential Energy ::          -57.777282635435
                                      Virial (-V/T) ::            2.334995642336
                                        Core Energy ::          -60.197309615488
                                          XC Energy ::           -5.116883226844
                                     Coulomb Energy ::           32.280974644483
                       Total Pseudopotential Energy ::          -85.042885173964
                       Local Pseudopotential Energy ::          -66.341694915099
                    Nonlocal Pseudopotential Energy ::          -18.701190258865
                                        Confinement ::            1.015111208892

 Orbital energies  State     L     Occupation   Energy[a.u.]          Energy[eV]

                       1     0          1.000      -0.213792           -5.817572

                       1     2         10.000      -0.093371           -2.540765


 Total Electron Density at R=0:                                         0.000035
 Re-scaling the density matrix to get the right number of electrons
                  # Electrons              Trace(P)               Scaling factor
                         1056              1056.000                        1.000


 SCF WAVEFUNCTION OPTIMIZATION

  Step     Update method      Time    Convergence         Total energy    Change
  ------------------------------------------------------------------------------
 DBCSR| CPU Multiplication driver                                           XSMM
 DBCSR| Multrec recursion limit                                              512
 DBCSR| Multiplication stack size                                           1000
 DBCSR| Maximum elements for images                                    UNLIMITED
 DBCSR| Multiplicative factor virtual images                                   1
 DBCSR| Use multiplication densification                                       T
 DBCSR| Multiplication size stacks                                             3
 DBCSR| Use memory pool for CPU allocation                                     F
 DBCSR| Number of 3D layers                                               SINGLE
 DBCSR| Use MPI memory allocation                                              F
 DBCSR| Use RMA algorithm                                                      F
 DBCSR| Use Communication thread                                               T
 DBCSR| Communication thread load                                             87
 DBCSR| MPI: My node id                                                        0
 DBCSR| MPI: Number of nodes                                                  20
 DBCSR| OMP: Current number of threads                                         1
 DBCSR| OMP: Max number of threads                                             1
 DBCSR| Split modifier for TAS multiplication algorithm                  1.0E+00


  **** **** ******  **  PROGRAM STARTED AT               2023-03-27 11:16:49.716
 ***** ** ***  *** **   PROGRAM STARTED ON                 cn1035.scarf.rl.ac.uk
 **    ****   ******    PROGRAM STARTED BY                             scarf1157
 ***** **    ** ** **   PROGRAM PROCESS ID                                  8153
  **** **  *******  **  PROGRAM STARTED IN /work4/scd/scarf1157/work/testing/cp2
                                           k-smeagol/bdt/cp2k/hollow-site/transp
                                           ort-cp2k/5-4/geometry-ordered/3x3-4/s
                                           z/bulk_layers-4/transmission/exp/capa
                                           citor/sergey-equal/auto/kpoints-20_te
                                           st/chris_kpoints-2-2-20_hlb-auto-NIMA
                                           GES_IJ_3

 CP2K| version string:                 CP2K version 2022.1 (Development Version)
 CP2K| source code revision number:                                  git:c53e391
 CP2K| cp2kflags: omp fftw3 libxc parallel mpi3 scalapack xsmm spglib           
 CP2K| is freely available from                            https://www.cp2k.org/
 CP2K| Program compiled at                          Thu  9 Mar 18:17:55 GMT 2023
 CP2K| Program compiled on                                 cn1108.scarf.rl.ac.uk
 CP2K| Program compiled for                                                local
 CP2K| Data directory path    /home/vol07/scarf1157/code/smeagol/cp2k-smeagol/sc
 CP2K| Input file name                                                   4_V.inp

 GLOBAL| Force Environment number                                              1
 GLOBAL| Basis set file name                                        BASIS_MOLOPT
 GLOBAL| Potential file name                                      GTH_POTENTIALS
 GLOBAL| MM Potential file name                                     MM_POTENTIAL
 GLOBAL| Coordinate file name                                             em.xyz
 GLOBAL| Method name                                                        CP2K
 GLOBAL| Project name                                                          V
 GLOBAL| Run type                                                         ENERGY
 GLOBAL| FFT library                                                       FFTW3
 GLOBAL| Diagonalization library                                       ScaLAPACK
 GLOBAL| Orthonormality check for eigenvectors                          DISABLED
 GLOBAL| Matrix multiplication library                                 ScaLAPACK
 GLOBAL| All-to-all communication in single precision                          F
 GLOBAL| FFTs using library dependent lengths                                  T
 GLOBAL| Grid backend                                                       AUTO
 GLOBAL| Global print level                                               MEDIUM
 GLOBAL| MPI I/O enabled                                                       T
 GLOBAL| Total number of message passing processes                            20
 GLOBAL| Number of threads for this process                                    1
 GLOBAL| This output is from process                                           0
 GLOBAL| Stack size for threads created by OpenMP (OMP_STACKSIZE)        default
 GLOBAL| CPU model name                         AMD EPYC 7502P 32-Core Processor
 GLOBAL| CPUID                                                              1002

 MEMORY| system memory details [Kb]
 MEMORY|                        rank 0           min           max       average
 MEMORY| MemTotal            263896984     263896984     263896984     263896984
 MEMORY| MemFree             109961888     109961836     109961888     109961838
 MEMORY| Buffers                  2496          2496          2496          2496
 MEMORY| Cached              133748288     133748096     133748288     133748105
 MEMORY| Slab                  1548712       1548712       1548716       1548712
 MEMORY| SReclaimable          1008672       1008672       1008672       1008672
 MEMORY| MemLikelyFree       244721344     244721100     244721344     244721112


 *** Fundamental physical constants (SI units) ***

 *** Literature: B. J. Mohr and B. N. Taylor,
 ***             CODATA recommended values of the fundamental physical
 ***             constants: 2006, Web Version 5.1
 ***             http://physics.nist.gov/constants

 Speed of light in vacuum [m/s]                             2.99792458000000E+08
 Magnetic constant or permeability of vacuum [N/A**2]       1.25663706143592E-06
 Electric constant or permittivity of vacuum [F/m]          8.85418781762039E-12
 Planck constant (h) [J*s]                                  6.62606896000000E-34
 Planck constant (h-bar) [J*s]                              1.05457162825177E-34
 Elementary charge [C]                                      1.60217648700000E-19
 Electron mass [kg]                                         9.10938215000000E-31
 Electron g factor [ ]                                     -2.00231930436220E+00
 Proton mass [kg]                                           1.67262163700000E-27
 Fine-structure constant                                    7.29735253760000E-03
 Rydberg constant [1/m]                                     1.09737315685270E+07
 Avogadro constant [1/mol]                                  6.02214179000000E+23
 Boltzmann constant [J/K]                                   1.38065040000000E-23
 Atomic mass unit [kg]                                      1.66053878200000E-27
 Bohr radius [m]                                            5.29177208590000E-11

 *** Conversion factors ***

 [u] -> [a.u.]                                              1.82288848426455E+03
 [Angstrom] -> [Bohr] = [a.u.]                              1.88972613288564E+00
 [a.u.] = [Bohr] -> [Angstrom]                              5.29177208590000E-01
 [a.u.] -> [s]                                              2.41888432650478E-17
 [a.u.] -> [fs]                                             2.41888432650478E-02
 [a.u.] -> [J]                                              4.35974393937059E-18
 [a.u.] -> [N]                                              8.23872205491840E-08
 [a.u.] -> [K]                                              3.15774647902944E+05
 [a.u.] -> [kJ/mol]                                         2.62549961709828E+03
 [a.u.] -> [kcal/mol]                                       6.27509468713739E+02
 [a.u.] -> [Pa]                                             2.94210107994716E+13
 [a.u.] -> [bar]                                            2.94210107994716E+08
 [a.u.] -> [atm]                                            2.90362800883016E+08
 [a.u.] -> [eV]                                             2.72113838565563E+01
 [a.u.] -> [Hz]                                             6.57968392072181E+15
 [a.u.] -> [1/cm] (wave numbers)                            2.19474631370540E+05
 [a.u./Bohr**2] -> [1/cm]                                   5.14048714338585E+03
 

 CELL_TOP| Volume [angstrom^3]:                                      2357.480286
 CELL_TOP| Vector a [angstrom     8.336     0.000     0.000   |a| =     8.336000
 CELL_TOP| Vector b [angstrom     0.000     8.336     0.000   |b| =     8.336000
 CELL_TOP| Vector c [angstrom     0.000     0.000    33.926   |c| =    33.926000
 CELL_TOP| Angle (b,c), alpha [degree]:                                90.000000
 CELL_TOP| Angle (a,c), beta  [degree]:                                90.000000
 CELL_TOP| Angle (a,b), gamma [degree]:                                90.000000
 CELL_TOP| Numerically orthorhombic:                                         YES
 CELL_TOP| Periodicity                                                       XYZ

 GENERATE|  Preliminary Number of Bonds generated:                             0
 GENERATE|  Achieved consistency in connectivity generation.

 CELL| Volume [angstrom^3]:                                          2357.480286
 CELL| Vector a [angstrom]:       8.336     0.000     0.000   |a| =     8.336000
 CELL| Vector b [angstrom]:       0.000     8.336     0.000   |b| =     8.336000
 CELL| Vector c [angstrom]:       0.000     0.000    33.926   |c| =    33.926000
 CELL| Angle (b,c), alpha [degree]:                                    90.000000
 CELL| Angle (a,c), beta  [degree]:                                    90.000000
 CELL| Angle (a,b), gamma [degree]:                                    90.000000
 CELL| Numerically orthorhombic:                                             YES
 CELL| Periodicity                                                           XYZ

 CELL_REF| Volume [angstrom^3]:                                      2357.480286
 CELL_REF| Vector a [angstrom     8.336     0.000     0.000   |a| =     8.336000
 CELL_REF| Vector b [angstrom     0.000     8.336     0.000   |b| =     8.336000
 CELL_REF| Vector c [angstrom     0.000     0.000    33.926   |c| =    33.926000
 CELL_REF| Angle (b,c), alpha [degree]:                                90.000000
 CELL_REF| Angle (a,c), beta  [degree]:                                90.000000
 CELL_REF| Angle (a,b), gamma [degree]:                                90.000000
 CELL_REF| Numerically orthorhombic:                                         YES
 CELL_REF| Periodicity                                                       XYZ

 *******************************************************************************
                                    Kpoints
 *******************************************************************************
 BRILLOUIN| K-point scheme                                        Monkhorst-Pack
 BRILLOUIN| K-Point grid                                             2    2    1
 BRILLOUIN| Accuracy in Symmetry determination                      0.100000E-07
 BRILLOUIN| K-Point point group symmetrization                               OFF
 BRILLOUIN| Wavefunction type                                            COMPLEX
 BRILLOUIN| Use full k-point grid     
 BRILLOUIN| List of Kpoints [2 Pi/Bohr]                                        4
 BRILLOUIN| Number           Weight            X              Y              Z
 BRILLOUIN|     1           0.25000       -0.25000       -0.25000        0.00000
 BRILLOUIN|     2           0.25000       -0.25000        0.25000        0.00000
 BRILLOUIN|     3           0.25000        0.25000       -0.25000        0.00000
 BRILLOUIN|     4           0.25000        0.25000        0.25000        0.00000
 *******************************************************************************

 *******************************************************************************
 *******************************************************************************
 **                                                                           **
 **     #####                         ##              ##                      **
 **    ##   ##            ##          ##              ##                      **
 **   ##     ##                       ##            ######                    **
 **   ##     ##  ##   ##  ##   #####  ##  ##   ####   ##    #####    #####    **
 **   ##     ##  ##   ##  ##  ##      ## ##   ##      ##   ##   ##  ##   ##   **
 **   ##  ## ##  ##   ##  ##  ##      ####     ###    ##   ######   ######    **
 **    ##  ###   ##   ##  ##  ##      ## ##      ##   ##   ##       ##        **
 **     #######   #####   ##   #####  ##  ##  ####    ##    #####   ##        **
 **           ##                                                    ##        **
 **                                                                           **
 **                                                ... make the atoms dance   **
 **                                                                           **
 **            Copyright (C) by CP2K developers group (2000-2022)             **
 **                      J. Chem. Phys. 152, 194103 (2020)                    **
 **                                                                           **
 *******************************************************************************

 DFT| Spin restricted Kohn-Sham (RKS) calculation                            RKS
 DFT| Multiplicity                                                             1
 DFT| Number of spin states                                                    1
 DFT| Charge                                                                   0
 DFT| Self-interaction correction (SIC)                                       NO
 DFT| Cutoffs: density                                              1.000000E-10
 DFT|          gradient                                             1.000000E-10
 DFT|          tau                                                  1.000000E-10
 DFT|          cutoff_smoothing_range                               0.000000E+00
 DFT| XC density smoothing                                                  NONE
 DFT| XC derivatives                                                          PW

 FUNCTIONAL| PADE:
 FUNCTIONAL| S. Goedecker, M. Teter and J. Hutter, Phys. Rev. B 54, 1703 (1996) 


 QS| Method:                                                                 GPW
 QS| Density plane wave grid type                        NON-SPHERICAL FULLSPACE
 QS| Number of grid levels:                                                    4
 QS| Density cutoff [a.u.]:                                                200.0
 QS| Multi grid cutoff [a.u.]: 1) grid level                               200.0
 QS|                           2) grid level                                66.7
 QS|                           3) grid level                                22.2
 QS|                           4) grid level                                 7.4
 QS| Grid level progression factor:                                          3.0
 QS| Relative density cutoff [a.u.]:                                        20.0
 QS| Interaction thresholds: eps_pgf_orb:                                1.0E-05
 QS|                         eps_filter_matrix:                          0.0E+00
 QS|                         eps_core_charge:                            1.0E-12
 QS|                         eps_rho_gspace:                             1.0E-10
 QS|                         eps_rho_rspace:                             1.0E-10
 QS|                         eps_gvg_rspace:                             1.0E-05
 QS|                         eps_ppl:                                    1.0E-02
 QS|                         eps_ppnl:                                   1.0E-07


 ATOMIC KIND INFORMATION

  1. Atomic kind: Au                                    Number of atoms:      96

     Orbital Basis Set                                         SZV-MOLOPT-SR-GTH

       Number of orbital shell sets:                                           1
       Number of orbital shells:                                               3
       Number of primitive Cartesian functions:                                5
       Number of Cartesian basis functions:                                   10
       Number of spherical basis functions:                                    9
       Norm type:                                                              2

       Normalised Cartesian orbitals:

                        Set   Shell   Orbital            Exponent    Coefficient

                          1       1    2s                2.950008       0.074626
                                                         1.563057      -0.007898
                                                         0.666664      -0.297688
                                                         0.251083       0.136809
                                                         0.081714       0.088198

                          1       2    3px               2.950008       0.148824
                                                         1.563057       0.025430
                                                         0.666664      -0.123003
                                                         0.251083       0.033648
                                                         0.081714       0.059008
                          1       2    3py               2.950008       0.148824
                                                         1.563057       0.025430
                                                         0.666664      -0.123003
                                                         0.251083       0.033648
                                                         0.081714       0.059008
                          1       2    3pz               2.950008       0.148824
                                                         1.563057       0.025430
                                                         0.666664      -0.123003
                                                         0.251083       0.033648
                                                         0.081714       0.059008

                          1       3    4dx2              2.950008      -0.139595
                                                         1.563057       1.319655
                                                         0.666664       0.377081
                                                         0.251083       0.046872
                                                         0.081714       0.001393
                          1       3    4dxy              2.950008      -0.241786
                                                         1.563057       2.285709
                                                         0.666664       0.653124
                                                         0.251083       0.081185
                                                         0.081714       0.002412
                          1       3    4dxz              2.950008      -0.241786
                                                         1.563057       2.285709
                                                         0.666664       0.653124
                                                         0.251083       0.081185
                                                         0.081714       0.002412
                          1       3    4dy2              2.950008      -0.139595
                                                         1.563057       1.319655
                                                         0.666664       0.377081
                                                         0.251083       0.046872
                                                         0.081714       0.001393
                          1       3    4dyz              2.950008      -0.241786
                                                         1.563057       2.285709
                                                         0.666664       0.653124
                                                         0.251083       0.081185
                                                         0.081714       0.002412
                          1       3    4dz2              2.950008      -0.139595
                                                         1.563057       1.319655
                                                         0.666664       0.377081
                                                         0.251083       0.046872
                                                         0.081714       0.001393

       Atomic covalent radius [Angstrom]:                                  1.340

       Atomic van der Waals radius [Angstrom]:                             1.660

     GTH Potential information for                                  GTH-PADE-q11

       Description:                       Goedecker-Teter-Hutter pseudopotential
                                           Goedecker et al., PRB 54, 1703 (1996)
                                          Hartwigsen et al., PRB 58, 3641 (1998)
                                                      Krack, TCA 114, 145 (2005)

       Gaussian exponent of the core charge distribution:               1.436369
       Electronic configuration (s p d ...):                           1   0  10

       Parameters of the local part of the GTH pseudopotential:

                          rloc        C1          C2          C3          C4
                        0.590000   11.604428

       Parameters of the non-local part of the GTH pseudopotential:

                   l      r(l)      h(i,j,l)

                   0    0.521180    2.538614   -1.046137
                                   -1.046137    2.701113
                   1    0.630613    0.394853   -0.869592
                                   -0.869592    2.057831
                   2    0.440706   -4.719070    0.727771
                                    0.727771   -1.650429


 MOLECULE KIND INFORMATION


 All atoms are their own molecule, skipping detailed information


 TOTAL NUMBERS AND MAXIMUM NUMBERS

  Total number of            - Atomic kinds:                                   1
                             - Atoms:                                         96
                             - Shell sets:                                    96
                             - Shells:                                       288
                             - Primitive Cartesian functions:                480
                             - Cartesian basis functions:                    960
                             - Spherical basis functions:                    864

  Maximum angular momentum of- Orbital basis functions:                        2
                             - Local part of the GTH pseudopotential:          0
                             - Non-local part of the GTH pseudopotential:      4


 MODULE QUICKSTEP: ATOMIC COORDINATES IN ANGSTROM

   Atom Kind Element         X             Y             Z       Z(eff)     Mass
      1    1 Au   79      0.000000      0.000000      0.000000  11.0000 196.9666
      2    1 Au   79      0.000000      4.168000      0.000000  11.0000 196.9666
      3    1 Au   79      2.084000      2.084000      0.000000  11.0000 196.9666
      4    1 Au   79      2.084000      6.252000      0.000000  11.0000 196.9666
      5    1 Au   79      4.168000      0.000000      0.000000  11.0000 196.9666
      6    1 Au   79      4.168000      4.168000      0.000000  11.0000 196.9666
      7    1 Au   79      6.252000      2.084000      0.000000  11.0000 196.9666
      8    1 Au   79      6.252000      6.252000      0.000000  11.0000 196.9666
      9    1 Au   79      0.000000      2.084000      2.084000  11.0000 196.9666
     10    1 Au   79      0.000000      6.252000      2.084000  11.0000 196.9666
     11    1 Au   79      2.084000      0.000000      2.084000  11.0000 196.9666
     12    1 Au   79      2.084000      4.168000      2.084000  11.0000 196.9666
     13    1 Au   79      4.168000      2.084000      2.084000  11.0000 196.9666
     14    1 Au   79      4.168000      6.252000      2.084000  11.0000 196.9666
     15    1 Au   79      6.252000      0.000000      2.084000  11.0000 196.9666
     16    1 Au   79      6.252000      4.168000      2.084000  11.0000 196.9666
     17    1 Au   79      0.000000      0.000000      4.168000  11.0000 196.9666
     18    1 Au   79      0.000000      4.168000      4.168000  11.0000 196.9666
     19    1 Au   79      2.084000      2.084000      4.168000  11.0000 196.9666
     20    1 Au   79      2.084000      6.252000      4.168000  11.0000 196.9666
     21    1 Au   79      4.168000      0.000000      4.168000  11.0000 196.9666
     22    1 Au   79      4.168000      4.168000      4.168000  11.0000 196.9666
     23    1 Au   79      6.252000      2.084000      4.168000  11.0000 196.9666
     24    1 Au   79      6.252000      6.252000      4.168000  11.0000 196.9666
     25    1 Au   79      0.000000      2.084000      6.252000  11.0000 196.9666
     26    1 Au   79      0.000000      6.252000      6.252000  11.0000 196.9666
     27    1 Au   79      2.084000      0.000000      6.252000  11.0000 196.9666
     28    1 Au   79      2.084000      4.168000      6.252000  11.0000 196.9666
     29    1 Au   79      4.168000      2.084000      6.252000  11.0000 196.9666
     30    1 Au   79      4.168000      6.252000      6.252000  11.0000 196.9666
     31    1 Au   79      6.252000      0.000000      6.252000  11.0000 196.9666
     32    1 Au   79      6.252000      4.168000      6.252000  11.0000 196.9666
     33    1 Au   79      0.000000      0.000000      8.336000  11.0000 196.9666
     34    1 Au   79      0.000000      4.168000      8.336000  11.0000 196.9666
     35    1 Au   79      2.084000      2.084000      8.336000  11.0000 196.9666
     36    1 Au   79      2.084000      6.252000      8.336000  11.0000 196.9666
     37    1 Au   79      4.168000      0.000000      8.336000  11.0000 196.9666
     38    1 Au   79      4.168000      4.168000      8.336000  11.0000 196.9666
     39    1 Au   79      6.252000      2.084000      8.336000  11.0000 196.9666
     40    1 Au   79      6.252000      6.252000      8.336000  11.0000 196.9666
     41    1 Au   79      0.000000      2.084000     10.420000  11.0000 196.9666
     42    1 Au   79      0.000000      6.252000     10.420000  11.0000 196.9666
     43    1 Au   79      2.084000      0.000000     10.420000  11.0000 196.9666
     44    1 Au   79      2.084000      4.168000     10.420000  11.0000 196.9666
     45    1 Au   79      4.168000      2.084000     10.420000  11.0000 196.9666
     46    1 Au   79      4.168000      6.252000     10.420000  11.0000 196.9666
     47    1 Au   79      6.252000      0.000000     10.420000  11.0000 196.9666
     48    1 Au   79      6.252000      4.168000     10.420000  11.0000 196.9666
     49    1 Au   79      0.000000      0.000000     21.422000  11.0000 196.9666
     50    1 Au   79      0.000000      4.168000     21.422000  11.0000 196.9666
     51    1 Au   79      2.084000      2.084000     21.422000  11.0000 196.9666
     52    1 Au   79      2.084000      6.252000     21.422000  11.0000 196.9666
     53    1 Au   79      4.168000      0.000000     21.422000  11.0000 196.9666
     54    1 Au   79      4.168000      4.168000     21.422000  11.0000 196.9666
     55    1 Au   79      6.252000      2.084000     21.422000  11.0000 196.9666
     56    1 Au   79      6.252000      6.252000     21.422000  11.0000 196.9666
     57    1 Au   79      0.000000      2.084000     23.506000  11.0000 196.9666
     58    1 Au   79      0.000000      6.252000     23.506000  11.0000 196.9666
     59    1 Au   79      2.084000      0.000000     23.506000  11.0000 196.9666
     60    1 Au   79      2.084000      4.168000     23.506000  11.0000 196.9666
     61    1 Au   79      4.168000      2.084000     23.506000  11.0000 196.9666
     62    1 Au   79      4.168000      6.252000     23.506000  11.0000 196.9666
     63    1 Au   79      6.252000      0.000000     23.506000  11.0000 196.9666
     64    1 Au   79      6.252000      4.168000     23.506000  11.0000 196.9666
     65    1 Au   79      0.000000      0.000000     25.590000  11.0000 196.9666
     66    1 Au   79      0.000000      4.168000     25.590000  11.0000 196.9666
     67    1 Au   79      2.084000      2.084000     25.590000  11.0000 196.9666
     68    1 Au   79      2.084000      6.252000     25.590000  11.0000 196.9666
     69    1 Au   79      4.168000      0.000000     25.590000  11.0000 196.9666
     70    1 Au   79      4.168000      4.168000     25.590000  11.0000 196.9666
     71    1 Au   79      6.252000      2.084000     25.590000  11.0000 196.9666
     72    1 Au   79      6.252000      6.252000     25.590000  11.0000 196.9666
     73    1 Au   79      0.000000      2.084000     27.674000  11.0000 196.9666
     74    1 Au   79      0.000000      6.252000     27.674000  11.0000 196.9666
     75    1 Au   79      2.084000      0.000000     27.674000  11.0000 196.9666
     76    1 Au   79      2.084000      4.168000     27.674000  11.0000 196.9666
     77    1 Au   79      4.168000      2.084000     27.674000  11.0000 196.9666
     78    1 Au   79      4.168000      6.252000     27.674000  11.0000 196.9666
     79    1 Au   79      6.252000      0.000000     27.674000  11.0000 196.9666
     80    1 Au   79      6.252000      4.168000     27.674000  11.0000 196.9666
     81    1 Au   79      0.000000      0.000000     29.758000  11.0000 196.9666
     82    1 Au   79      0.000000      4.168000     29.758000  11.0000 196.9666
     83    1 Au   79      2.084000      2.084000     29.758000  11.0000 196.9666
     84    1 Au   79      2.084000      6.252000     29.758000  11.0000 196.9666
     85    1 Au   79      4.168000      0.000000     29.758000  11.0000 196.9666
     86    1 Au   79      4.168000      4.168000     29.758000  11.0000 196.9666
     87    1 Au   79      6.252000      2.084000     29.758000  11.0000 196.9666
     88    1 Au   79      6.252000      6.252000     29.758000  11.0000 196.9666
     89    1 Au   79      0.000000      2.084000     31.842000  11.0000 196.9666
     90    1 Au   79      0.000000      6.252000     31.842000  11.0000 196.9666
     91    1 Au   79      2.084000      0.000000     31.842000  11.0000 196.9666
     92    1 Au   79      2.084000      4.168000     31.842000  11.0000 196.9666
     93    1 Au   79      4.168000      2.084000     31.842000  11.0000 196.9666
     94    1 Au   79      4.168000      6.252000     31.842000  11.0000 196.9666
     95    1 Au   79      6.252000      0.000000     31.842000  11.0000 196.9666
     96    1 Au   79      6.252000      4.168000     31.842000  11.0000 196.9666



 SCF PARAMETERS         Density guess:                                   RESTART
                        --------------------------------------------------------
                        max_scf:                                             500
                        max_scf_history:                                       0
                        max_diis:                                              4
                        --------------------------------------------------------
                        eps_scf:                                        1.00E-07
                        eps_scf_history:                                0.00E+00
                        eps_diis:                                       1.00E-01
                        eps_eigval:                                     1.00E-05
                        --------------------------------------------------------
                        level_shift [a.u.]:                             0.000000
                        added MOs                                       100    0
                        --------------------------------------------------------
                        Mixing method:                            BROYDEN_MIXING
                                                charge density mixing in g-space
                        --------------------------------------------------------
                        Smear method:                                FERMI_DIRAC
                        Electronic temperature [K]:                        293.0
                        Electronic temperature [a.u.]:                  9.28E-04
                        Accuracy threshold:                             1.00E-10
                        --------------------------------------------------------
                        No outer SCF

 PW_GRID| Information for grid number                                          1
 PW_GRID| Grid distributed over                                    20 processors
 PW_GRID| Real space group dimensions                                    20    1
 PW_GRID| the grid is blocked:                                                NO
 PW_GRID| Cutoff [a.u.]                                                    200.0
 PW_GRID| spherical cutoff:                                                   NO
 PW_GRID|   Bounds   1            -52      52                Points:         105
 PW_GRID|   Bounds   2            -52      52                Points:         105
 PW_GRID|   Bounds   3           -210     209                Points:         420
 PW_GRID| Volume element (a.u.^3)  0.3436E-02     Volume (a.u.^3)     15909.0657
 PW_GRID| Grid span                                                    FULLSPACE
 PW_GRID|   Distribution                         Average         Max         Min
 PW_GRID|   G-Vectors                           231525.0      231525      231525
 PW_GRID|   G-Rays                                2205.0        2205        2205
 PW_GRID|   Real Space Points                   231525.0      264600      220500

 PW_GRID| Information for grid number                                          2
 PW_GRID| Number of the reference grid                                         1
 PW_GRID| Grid distributed over                                    20 processors
 PW_GRID| Real space group dimensions                                    20    1
 PW_GRID| the grid is blocked:                                                NO
 PW_GRID| Cutoff [a.u.]                                                     66.7
 PW_GRID| spherical cutoff:                                                   NO
 PW_GRID|   Bounds   1            -30      29                Points:          60
[...]
 PW_GRID|   Bounds   2            -16      16                Points:          33
 PW_GRID|   Bounds   3            -70      69                Points:         140
 PW_GRID| Volume element (a.u.^3)  0.1043         Volume (a.u.^3)     15909.0657
 PW_GRID| Grid span                                                    FULLSPACE
 PW_GRID|   Distribution                         Average         Max         Min
 PW_GRID|   G-Vectors                             1270.5       12705           0
 PW_GRID|   G-Rays                                  38.5         385           0
 PW_GRID|   Real Space Points                     1270.5        1680         840

 PW_GRID| Information for grid number                                          4
 PW_GRID| Number of the reference grid                                         1
 PW_GRID| Grid distributed over                                   120 processors
 PW_GRID| Real space group dimensions                                    10   12
 PW_GRID| the grid is blocked:                                                NO
 PW_GRID| Cutoff [a.u.]                                                      7.4
 PW_GRID| spherical cutoff:                                                   NO
 PW_GRID|   Bounds   1            -10       9                Points:          20
 PW_GRID|   Bounds   2            -10       9                Points:          20
 PW_GRID|   Bounds   3            -40      39                Points:          80
 PW_GRID| Volume element (a.u.^3)  0.4972         Volume (a.u.^3)     15909.0657
 PW_GRID| Grid span                                                    FULLSPACE
 PW_GRID|   Distribution                         Average         Max         Min
 PW_GRID|   G-Vectors                              266.7        7000           0
 PW_GRID|   G-Rays                                  13.3         350           0
 PW_GRID|   Real Space Points                      266.7         320         160

 POISSON| Solver                                                        PERIODIC
 POISSON| Periodicity                                                        XYZ

 RS_GRID| Information for grid number                                          1
 RS_GRID|   Bounds   1            -52      52                Points:         105
 RS_GRID|   Bounds   2            -52      52                Points:         105
 RS_GRID|   Bounds   3           -210     209                Points:         420
 RS_GRID| Real space distribution over                                  5 groups
 RS_GRID| Real space distribution along direction                              2
 RS_GRID| Border size                                                         30
 RS_GRID| Real space distribution over                                 24 groups
 RS_GRID| Real space distribution along direction                              3
 RS_GRID| Border size                                                         30
 RS_GRID|   Distribution                         Average         Max         Min
 RS_GRID|   Planes                                  81.0          81          81
 RS_GRID|   Distribution                         Average         Max         Min
 RS_GRID|   Planes                                  77.5          78          77

 RS_GRID| Information for grid number                                          2
 RS_GRID|   Bounds   1            -30      29                Points:          60
 RS_GRID|   Bounds   2            -30      29                Points:          60
 RS_GRID|   Bounds   3           -120     119                Points:         240
 RS_GRID| Real space distribution over                                  5 groups
 RS_GRID| Real space distribution along direction                              2
 RS_GRID| Border size                                                         20
 RS_GRID| Real space distribution over                                 24 groups
 RS_GRID| Real space distribution along direction                              3
 RS_GRID| Border size                                                         20
 RS_GRID|   Distribution                         Average         Max         Min
 RS_GRID|   Planes                                  52.0          52          52
 RS_GRID|   Distribution                         Average         Max         Min
 RS_GRID|   Planes                                  50.0          50          50

 RS_GRID| Information for grid number                                          3
 RS_GRID|   Bounds   1            -16      16                Points:          33
 RS_GRID|   Bounds   2            -16      16                Points:          33
 RS_GRID|   Bounds   3            -70      69                Points:         140
 RS_GRID| Real space fully replicated
 RS_GRID| Group size                                                           1

 RS_GRID| Information for grid number                                          4
 RS_GRID|   Bounds   1            -10       9                Points:          20
 RS_GRID|   Bounds   2            -10       9                Points:          20
 RS_GRID|   Bounds   3            -40      39                Points:          80
 RS_GRID| Real space fully replicated
 RS_GRID| Group size                                                           1

 KPOINTS| Number of kpoint groups                                              1
 KPOINTS| Size of each kpoint group                                          120
 KPOINTS| Number of kpoints per group                                          4

 Number of electrons:                                                       1056
 Number of occupied orbitals:                                                528
 Number of molecular orbitals:                                               628

 Number of orbital functions:                                                864
 Number of independent orbital functions:                                    864

 Extrapolation method: initial_guess


 SCF WAVEFUNCTION OPTIMIZATION

  Step     Update method      Time    Convergence         Total energy    Change
  ------------------------------------------------------------------------------
 Using HartreeLeadsBottom  -10.989796329999999     
 v_hartree_z_average(0)   4.8306903790332575E-004
 nimages          33
 n_cell_images           3           3
 n_cell_images_half           1           1           0
 n_cell_images_half           1           1           1
 n_cell_images           3           3
     1 NoMix/SMGL  0.30E+00  119.5     0.06645456     -3195.1491271399 -3.20E+03
 Using HartreeLeadsBottom  -10.989796329999999     
 v_hartree_z_average(0)   4.5511622501399792E-004
 nimages          33
 n_cell_images           3           3
 n_cell_images_half           1           1           0
 n_cell_images_half           1           1           1
 n_cell_images           3           3
     2 Broy./SMGL  0.30E+00   47.0     0.23789619     -3197.5890505390 -2.44E+00
 Using HartreeLeadsBottom  -10.989796329999999     
 v_hartree_z_average(0)   4.6641690065979126E-004
 nimages          33
 n_cell_images           3           3
 n_cell_images_half           1           1           0
 n_cell_images_half           1           1           1
 n_cell_images           3           3
     3 Broy./SMGL  0.30E+00   46.5     0.24310800     -3193.3039463234  4.29E+00
 Using HartreeLeadsBottom  -10.989796329999999     
 v_hartree_z_average(0)   4.7129571099336975E-004
 nimages          33
 n_cell_images           3           3
 n_cell_images_half           1           1           0
 n_cell_images_half           1           1           1
 n_cell_images           3           3
     4 Broy./SMGL  0.30E+00   46.7     0.03304363     -3191.2455495009  2.06E+00
 Using HartreeLeadsBottom  -10.989796329999999     
 v_hartree_z_average(0)   4.7617244884560068E-004
 nimages          33
 n_cell_images           3           3
 n_cell_images_half           1           1           0
 n_cell_images_half           1           1           1
 n_cell_images           3           3
     5 Broy./SMGL  0.30E+00   46.5     0.02369423     -3193.2423044968 -2.00E+00
 Using HartreeLeadsBottom  -10.989796329999999     
 v_hartree_z_average(0)   4.7849342105418785E-004
 nimages          33
 n_cell_images           3           3
 n_cell_images_half           1           1           0
 n_cell_images_half           1           1           1
 n_cell_images           3           3
     6 Broy./SMGL  0.30E+00   46.6     0.01677811     -3194.5579163284 -1.32E+00
 Using HartreeLeadsBottom  -10.989796329999999     
 v_hartree_z_average(0)   4.7848656524486852E-004
 nimages          33
 n_cell_images           3           3
 n_cell_images_half           1           1           0
 n_cell_images_half           1           1           1
 n_cell_images           3           3
     7 Broy./SMGL  0.30E+00   46.8     0.00496392     -3194.9969095277 -4.39E-01
 Using HartreeLeadsBottom  -10.989796329999999     
 v_hartree_z_average(0)   4.7877304056181117E-004
 nimages          33
 n_cell_images           3           3
 n_cell_images_half           1           1           0
 n_cell_images_half           1           1           1
 n_cell_images           3           3
     8 Broy./SMGL  0.30E+00   46.8     0.00486033     -3195.0305533845 -3.36E-02
 Using HartreeLeadsBottom  -10.989796329999999     
 v_hartree_z_average(0)   4.7898952891090013E-004
 nimages          33
 n_cell_images           3           3
 n_cell_images_half           1           1           0
 n_cell_images_half           1           1           1
 n_cell_images           3           3
     9 Broy./SMGL  0.30E+00   47.5     0.00248943     -3195.1663796311 -1.36E-01
 Using HartreeLeadsBottom  -10.989796329999999     
 v_hartree_z_average(0)   4.7893456530633183E-004
 nimages          33
 n_cell_images           3           3
 n_cell_images_half           1           1           0
 n_cell_images_half           1           1           1
 n_cell_images           3           3
    10 Broy./SMGL  0.30E+00   46.7     0.00120609     -3195.1697551208 -3.38E-03
 Using HartreeLeadsBottom  -10.989796329999999     
 v_hartree_z_average(0)   4.7895742184328097E-004
 nimages          33
 n_cell_images           3           3
 n_cell_images_half           1           1           0
 n_cell_images_half           1           1           1
 n_cell_images           3           3
    11 Broy./SMGL  0.30E+00   48.8     0.00103123     -3195.1373724830  3.24E-02
 Using HartreeLeadsBottom  -10.989796329999999     
 v_hartree_z_average(0)   4.7902630073048486E-004
 nimages          33
 n_cell_images           3           3
 n_cell_images_half           1           1           0
 n_cell_images_half           1           1           1
 n_cell_images           3           3
    12 Broy./SMGL  0.30E+00   46.6     0.00032969     -3195.1492074471 -1.18E-02
 Using HartreeLeadsBottom  -10.989796329999999     
 v_hartree_z_average(0)   4.7895792191163770E-004
 nimages          33
 n_cell_images           3           3
 n_cell_images_half           1           1           0
 n_cell_images_half           1           1           1
 n_cell_images           3           3
    13 Broy./SMGL  0.30E+00   46.9     0.00046562     -3195.1608616381 -1.17E-02
 Using HartreeLeadsBottom  -10.989796329999999     
 v_hartree_z_average(0)   4.7902528690148559E-004
 nimages          33
 n_cell_images           3           3
 n_cell_images_half           1           1           0
 n_cell_images_half           1           1           1
 n_cell_images           3           3
    14 Broy./SMGL  0.30E+00   48.6     0.00052590     -3195.1233101514  3.76E-02
 Using HartreeLeadsBottom  -10.989796329999999     
 v_hartree_z_average(0)   4.7904467979776813E-004
 nimages          33
 n_cell_images           3           3
 n_cell_images_half           1           1           0
 n_cell_images_half           1           1           1
 n_cell_images           3           3
    15 Broy./SMGL  0.30E+00   46.6     0.00015432     -3195.1501504115 -2.68E-02
 Using HartreeLeadsBottom  -10.989796329999999     
 v_hartree_z_average(0)   4.7905522082247357E-004
 nimages          33
 n_cell_images           3           3
 n_cell_images_half           1           1           0
 n_cell_images_half           1           1           1
 n_cell_images           3           3
    16 Broy./SMGL  0.30E+00   46.6     0.00006900     -3195.1494372059  7.13E-04
 Using HartreeLeadsBottom  -10.989796329999999     
 v_hartree_z_average(0)   4.7907216861042373E-004
 nimages          33
 n_cell_images           3           3
 n_cell_images_half           1           1           0
 n_cell_images_half           1           1           1
 n_cell_images           3           3
    17 Broy./SMGL  0.30E+00   46.6     0.00004562     -3195.1463443588  3.09E-03
 Using HartreeLeadsBottom  -10.989796329999999     
 v_hartree_z_average(0)   4.7908656856880048E-004
 nimages          33
 n_cell_images           3           3
 n_cell_images_half           1           1           0
 n_cell_images_half           1           1           1
 n_cell_images           3           3
    18 Broy./SMGL  0.30E+00   46.6     0.00046183     -3195.1491122164 -2.77E-03
 Using HartreeLeadsBottom  -10.989796329999999     
 v_hartree_z_average(0)   4.7908671931271740E-004
 nimages          33
 n_cell_images           3           3
 n_cell_images_half           1           1           0
 n_cell_images_half           1           1           1
 n_cell_images           3           3
    19 Broy./SMGL  0.30E+00   46.8     0.00046204     -3195.1499459866 -8.34E-04
 Using HartreeLeadsBottom  -10.989796329999999     
 v_hartree_z_average(0)   4.7909178043441166E-004
 nimages          33
 n_cell_images           3           3
 n_cell_images_half           1           1           0
 n_cell_images_half           1           1           1
 n_cell_images           3           3
    20 Broy./SMGL  0.30E+00   47.2     0.00088485     -3195.1499345880  1.14E-05
 Using HartreeLeadsBottom  -10.989796329999999     
 v_hartree_z_average(0)   4.7910299998289290E-004
 nimages          33
 n_cell_images           3           3
 n_cell_images_half           1           1           0
 n_cell_images_half           1           1           1
 n_cell_images           3           3
    21 Broy./SMGL  0.30E+00   53.7     0.00088488     -3195.1495965396  3.38E-04
 Using HartreeLeadsBottom  -10.989796329999999     
 v_hartree_z_average(0)   4.7911457300938901E-004
 nimages          33
 n_cell_images           3           3
 n_cell_images_half           1           1           0
 n_cell_images_half           1           1           1
 n_cell_images           3           3
    22 Broy./SMGL  0.30E+00   46.8     0.00405604     -3195.1494075803  1.89E-04
 Using HartreeLeadsBottom  -10.989796329999999     
 v_hartree_z_average(0)   4.7911464861392206E-004
 nimages          33
 n_cell_images           3           3
 n_cell_images_half           1           1           0
 n_cell_images_half           1           1           1
 n_cell_images           3           3
    23 Broy./SMGL  0.30E+00   71.9     0.00405604     -3195.1487186452  6.89E-04
 Using HartreeLeadsBottom  -10.989796329999999     
 v_hartree_z_average(0)   4.7911457528761393E-004
 nimages          33
 n_cell_images           3           3
 n_cell_images_half           1           1           0
 n_cell_images_half           1           1           1
 n_cell_images           3           3
    24 Broy./SMGL  0.30E+00   46.9     0.00159484     -3195.1487163456  2.30E-06
 Using HartreeLeadsBottom  -10.989796329999999     
 v_hartree_z_average(0)   4.7911603699558018E-004
 nimages          33
 n_cell_images           3           3
 n_cell_images_half           1           1           0
 n_cell_images_half           1           1           1
 n_cell_images           3           3
    25 Broy./SMGL  0.30E+00   46.8     0.00159479     -3195.1489235334 -2.07E-04
 Using HartreeLeadsBottom  -10.989796329999999     
 v_hartree_z_average(0)   4.7911684421546725E-004
 nimages          33
 n_cell_images           3           3
 n_cell_images_half           1           1           0
 n_cell_images_half           1           1           1
 n_cell_images           3           3
    26 Broy./SMGL  0.30E+00   47.2     0.00000289     -3195.1490612068 -1.38E-04
 Using HartreeLeadsBottom  -10.989796329999999     
 v_hartree_z_average(0)   4.7911735192505495E-004
 nimages          33
 n_cell_images           3           3
 n_cell_images_half           1           1           0
 n_cell_images_half           1           1           1
 n_cell_images           3           3
    27 Broy./SMGL  0.30E+00   46.9     0.00000265     -3195.1489853144  7.59E-05
 Using HartreeLeadsBottom  -10.989796329999999     
 v_hartree_z_average(0)   4.7911973147492069E-004
 nimages          33
 n_cell_images           3           3
 n_cell_images_half           1           1           0
 n_cell_images_half           1           1           1
 n_cell_images           3           3
    28 Broy./SMGL  0.30E+00   48.1     0.00000333     -3195.1491780862 -1.93E-04
 Using HartreeLeadsBottom  -10.989796329999999     
 v_hartree_z_average(0)   4.7911946030626155E-004
 nimages          33
 n_cell_images           3           3
 n_cell_images_half           1           1           0
 n_cell_images_half           1           1           1
 n_cell_images           3           3
    29 Broy./SMGL  0.30E+00   47.1     0.00159473     -3195.1491007496  7.73E-05
 Using HartreeLeadsBottom  -10.989796329999999     
 v_hartree_z_average(0)   4.7911984376058822E-004
 nimages          33
 n_cell_images           3           3
 n_cell_images_half           1           1           0
 n_cell_images_half           1           1           1
 n_cell_images           3           3
    30 Broy./SMGL  0.30E+00   47.6     0.00159472     -3195.1491252197 -2.45E-05
 Using HartreeLeadsBottom  -10.989796329999999     
 v_hartree_z_average(0)   4.7911944891164865E-004
 nimages          33
 n_cell_images           3           3
 n_cell_images_half           1           1           0
 n_cell_images_half           1           1           1
 n_cell_images           3           3
    31 Broy./SMGL  0.30E+00   46.8     0.00000071     -3195.1491052090  2.00E-05
 Using HartreeLeadsBottom  -10.989796329999999     
 v_hartree_z_average(0)   4.7911854556934209E-004
 nimages          33
 n_cell_images           3           3
 n_cell_images_half           1           1           0
 n_cell_images_half           1           1           1
 n_cell_images           3           3
    32 Broy./SMGL  0.30E+00   47.3     0.00159472     -3195.1491202290 -1.50E-05
 Using HartreeLeadsBottom  -10.989796329999999     
 v_hartree_z_average(0)   4.7911769649153598E-004
 nimages          33
 n_cell_images           3           3
 n_cell_images_half           1           1           0
 n_cell_images_half           1           1           1
 n_cell_images           3           3
    33 Broy./SMGL  0.30E+00   47.1     0.00210721     -3195.1491159757  4.25E-06
 Using HartreeLeadsBottom  -10.989796329999999     
 v_hartree_z_average(0)   4.7911711405114124E-004
 nimages          33
 n_cell_images           3           3
 n_cell_images_half           1           1           0
 n_cell_images_half           1           1           1
 n_cell_images           3           3
    34 Broy./SMGL  0.30E+00   46.7     0.00210885     -3195.1491438452 -2.79E-05
 Using HartreeLeadsBottom  -10.989796329999999     
 v_hartree_z_average(0)   4.7911751590877760E-004
 nimages          33
 n_cell_images           3           3
 n_cell_images_half           1           1           0
 n_cell_images_half           1           1           1
 n_cell_images           3           3
    35 Broy./SMGL  0.30E+00   46.9     0.00000067     -3195.1491476305 -3.79E-06
