ATOMS
H             0.00000000      0.00000000     -0.00998254             0.70710635      0.00076894      0.00011814
H             0.00000000      0.00000000      0.73998166            -0.70710635     -0.00076894     -0.00011814
