 DBCSR| CPU Multiplication driver                                           XSMM
 DBCSR| Multrec recursion limit                                              512
 DBCSR| Multiplication stack size                                           1000
 DBCSR| Maximum elements for images                                    UNLIMITED
 DBCSR| Multiplicative factor virtual images                                   1
 DBCSR| Use multiplication densification                                       T
 DBCSR| Multiplication size stacks                                             3
 DBCSR| Use memory pool for CPU allocation                                     F
 DBCSR| Number of 3D layers                                               SINGLE
 DBCSR| Use MPI memory allocation                                              F
 DBCSR| Use RMA algorithm                                                      F
 DBCSR| Use Communication thread                                               T
 DBCSR| Communication thread load                                             87
 DBCSR| MPI: My node id                                                        0
 DBCSR| MPI: Number of nodes                                                  24
 DBCSR| OMP: Current number of threads                                         1
 DBCSR| OMP: Max number of threads                                             1
 DBCSR| Split modifier for TAS multiplication algorithm                  1.0E+00


  **** **** ******  **  PROGRAM STARTED AT               2022-10-20 11:28:36.735
 ***** ** ***  *** **   PROGRAM STARTED ON                 cn1028.scarf.rl.ac.uk
 **    ****   ******    PROGRAM STARTED BY                             scarf1157
 ***** **    ** ** **   PROGRAM PROCESS ID                                 58130
  **** **  *******  **  PROGRAM STARTED IN /work4/scd/scarf1157/work/testing/cp2
                                           k-smeagol/bdt/hollow-site/em-cp2k/sz

 CP2K| version string:                 CP2K version 2022.1 (Development Version)
 CP2K| source code revision number:                                  git:8c0411e
 CP2K| cp2kflags: omp libint fftw3 libxc parallel mpi3 scalapack cosma xsmm spgl
 CP2K|            ib sirius libvori libbqb libvdwxc
 CP2K| is freely available from                            https://www.cp2k.org/
 CP2K| Program compiled at                          Thu  6 Oct 11:48:07 BST 2022
 CP2K| Program compiled on                                 cn1065.scarf.rl.ac.uk
 CP2K| Program compiled for                                                local
 CP2K| Data directory path     /home/vol07/scarf1157/code/cp2k/scarf21/cp2k/data
 CP2K| Input file name                                             2_dft_wfn.inp

 GLOBAL| Force Environment number                                              1
 GLOBAL| Basis set file name                                        BASIS_MOLOPT
 GLOBAL| Potential file name                                      GTH_POTENTIALS
 GLOBAL| MM Potential file name                                     MM_POTENTIAL
 GLOBAL| Coordinate file name                                             em.xyz
 GLOBAL| Method name                                                        CP2K
 GLOBAL| Project name                                                    dft_wfn
 GLOBAL| Run type                                                         ENERGY
 GLOBAL| FFT library                                                       FFTW3
 GLOBAL| Diagonalization library                                       ScaLAPACK
 GLOBAL| DGEMM library                                                      BLAS
 GLOBAL| Orthonormality check for eigenvectors                          DISABLED
 GLOBAL| Matrix multiplication library                                     COSMA
 GLOBAL| All-to-all communication in single precision                          F
 GLOBAL| FFTs using library dependent lengths                                  T
 GLOBAL| Grid backend                                                       AUTO
 GLOBAL| Global print level                                               MEDIUM
 GLOBAL| MPI I/O enabled                                                       T
 GLOBAL| Total number of message passing processes                            24
 GLOBAL| Number of threads for this process                                    1
 GLOBAL| This output is from process                                           0
 GLOBAL| Stack size for threads created by OpenMP (OMP_STACKSIZE)        default
 GLOBAL| CPU model name                         AMD EPYC 7502P 32-Core Processor
 GLOBAL| CPUID                                                              1002
 GLOBAL| Compiled for CPUID                                                    0

 *** HINT in environment.F:884 :: The compiler target flags (generic) used ***
 *** to build this binary cannot exploit all extensions of this CPU model  ***
 *** (x86_avx2). Consider compiler target flags as part of FCFLAGS and     ***
 *** CFLAGS (ARCH file).                                                   ***


 MEMORY| system memory details [Kb]
 MEMORY|                        rank 0           min           max       average
 MEMORY| MemTotal            263897156     263897156     263897156     263897156
 MEMORY| MemFree             172317752     172317752     172317752     172317752
 MEMORY| Buffers                  2492          2492          2492          2492
 MEMORY| Cached               70971884      70971884      70971884      70971884
 MEMORY| Slab                  1505976       1505976       1505976       1505976
 MEMORY| SReclaimable           893448        893448        893448        893448
 MEMORY| MemLikelyFree       244185576     244185576     244185576     244185576


 *** Fundamental physical constants (SI units) ***

 *** Literature: B. J. Mohr and B. N. Taylor,
 ***             CODATA recommended values of the fundamental physical
 ***             constants: 2006, Web Version 5.1
 ***             http://physics.nist.gov/constants

 Speed of light in vacuum [m/s]                             2.99792458000000E+08
 Magnetic constant or permeability of vacuum [N/A**2]       1.25663706143592E-06
 Electric constant or permittivity of vacuum [F/m]          8.85418781762039E-12
 Planck constant (h) [J*s]                                  6.62606896000000E-34
 Planck constant (h-bar) [J*s]                              1.05457162825177E-34
 Elementary charge [C]                                      1.60217648700000E-19
 Electron mass [kg]                                         9.10938215000000E-31
 Electron g factor [ ]                                     -2.00231930436220E+00
 Proton mass [kg]                                           1.67262163700000E-27
 Fine-structure constant                                    7.29735253760000E-03
 Rydberg constant [1/m]                                     1.09737315685270E+07
 Avogadro constant [1/mol]                                  6.02214179000000E+23
 Boltzmann constant [J/K]                                   1.38065040000000E-23
 Atomic mass unit [kg]                                      1.66053878200000E-27
 Bohr radius [m]                                            5.29177208590000E-11

 *** Conversion factors ***

 [u] -> [a.u.]                                              1.82288848426455E+03
 [Angstrom] -> [Bohr] = [a.u.]                              1.88972613288564E+00
 [a.u.] = [Bohr] -> [Angstrom]                              5.29177208590000E-01
 [a.u.] -> [s]                                              2.41888432650478E-17
 [a.u.] -> [fs]                                             2.41888432650478E-02
 [a.u.] -> [J]                                              4.35974393937059E-18
 [a.u.] -> [N]                                              8.23872205491840E-08
 [a.u.] -> [K]                                              3.15774647902944E+05
 [a.u.] -> [kJ/mol]                                         2.62549961709828E+03
 [a.u.] -> [kcal/mol]                                       6.27509468713739E+02
 [a.u.] -> [Pa]                                             2.94210107994716E+13
 [a.u.] -> [bar]                                            2.94210107994716E+08
 [a.u.] -> [atm]                                            2.90362800883016E+08
 [a.u.] -> [eV]                                             2.72113838565563E+01
 [a.u.] -> [Hz]                                             6.57968392072181E+15
 [a.u.] -> [1/cm] (wave numbers)                            2.19474631370540E+05
 [a.u./Bohr**2] -> [1/cm]                                   5.14048714338585E+03
 

 CELL_TOP| Volume [angstrom^3]:                                      7127.721916
 CELL_TOP| Vector a [angstrom    16.685     0.000     0.000   |a| =    16.685150
 CELL_TOP| Vector b [angstrom     0.000    16.685     0.000   |b| =    16.685150
 CELL_TOP| Vector c [angstrom     0.000     0.000    25.603   |c| =    25.602980
 CELL_TOP| Angle (b,c), alpha [degree]:                                90.000000
 CELL_TOP| Angle (a,c), beta  [degree]:                                90.000000
 CELL_TOP| Angle (a,b), gamma [degree]:                                90.000000
 CELL_TOP| Numerically orthorhombic:                                         YES
 CELL_TOP| Periodicity                                                       XYZ

 GENERATE|  Preliminary Number of Bonds generated:                             0
 GENERATE|  Achieved consistency in connectivity generation.

 CELL| Volume [angstrom^3]:                                          7127.721916
 CELL| Vector a [angstrom]:      16.685     0.000     0.000   |a| =    16.685150
 CELL| Vector b [angstrom]:       0.000    16.685     0.000   |b| =    16.685150
 CELL| Vector c [angstrom]:       0.000     0.000    25.603   |c| =    25.602980
 CELL| Angle (b,c), alpha [degree]:                                    90.000000
 CELL| Angle (a,c), beta  [degree]:                                    90.000000
 CELL| Angle (a,b), gamma [degree]:                                    90.000000
 CELL| Numerically orthorhombic:                                             YES
 CELL| Periodicity                                                           XYZ

 CELL_REF| Volume [angstrom^3]:                                      7127.721916
 CELL_REF| Vector a [angstrom    16.685     0.000     0.000   |a| =    16.685150
 CELL_REF| Vector b [angstrom     0.000    16.685     0.000   |b| =    16.685150
 CELL_REF| Vector c [angstrom     0.000     0.000    25.603   |c| =    25.602980
 CELL_REF| Angle (b,c), alpha [degree]:                                90.000000
 CELL_REF| Angle (a,c), beta  [degree]:                                90.000000
 CELL_REF| Angle (a,b), gamma [degree]:                                90.000000
 CELL_REF| Numerically orthorhombic:                                         YES
 CELL_REF| Periodicity                                                       XYZ

 *******************************************************************************
 *******************************************************************************
 **                                                                           **
 **     #####                         ##              ##                      **
 **    ##   ##            ##          ##              ##                      **
 **   ##     ##                       ##            ######                    **
 **   ##     ##  ##   ##  ##   #####  ##  ##   ####   ##    #####    #####    **
 **   ##     ##  ##   ##  ##  ##      ## ##   ##      ##   ##   ##  ##   ##   **
 **   ##  ## ##  ##   ##  ##  ##      ####     ###    ##   ######   ######    **
 **    ##  ###   ##   ##  ##  ##      ## ##      ##   ##   ##       ##        **
 **     #######   #####   ##   #####  ##  ##  ####    ##    #####   ##        **
 **           ##                                                    ##        **
 **                                                                           **
 **                                                ... make the atoms dance   **
 **                                                                           **
 **            Copyright (C) by CP2K developers group (2000-2022)             **
 **                      J. Chem. Phys. 152, 194103 (2020)                    **
 **                                                                           **
 *******************************************************************************

 DFT| Spin restricted Kohn-Sham (RKS) calculation                            RKS
 DFT| Multiplicity                                                             1
 DFT| Number of spin states                                                    1
 DFT| Charge                                                                   0
 DFT| Self-interaction correction (SIC)                                       NO
 DFT| Cutoffs: density                                              1.000000E-10
 DFT|          gradient                                             1.000000E-10
 DFT|          tau                                                  1.000000E-10
 DFT|          cutoff_smoothing_range                               0.000000E+00
 DFT| XC density smoothing                                                  NONE
 DFT| XC derivatives                                                          PW

 FUNCTIONAL| PADE:
 FUNCTIONAL| S. Goedecker, M. Teter and J. Hutter, Phys. Rev. B 54, 1703 (1996) 


 QS| Method:                                                                 GPW
 QS| Density plane wave grid type                        NON-SPHERICAL FULLSPACE
 QS| Number of grid levels:                                                    4
 QS| Density cutoff [a.u.]:                                                200.0
 QS| Multi grid cutoff [a.u.]: 1) grid level                               200.0
 QS|                           2) grid level                                66.7
 QS|                           3) grid level                                22.2
 QS|                           4) grid level                                 7.4
 QS| Grid level progression factor:                                          3.0
 QS| Relative density cutoff [a.u.]:                                        20.0
 QS| Interaction thresholds: eps_pgf_orb:                                1.0E-05
 QS|                         eps_filter_matrix:                          0.0E+00
 QS|                         eps_core_charge:                            1.0E-12
 QS|                         eps_rho_gspace:                             1.0E-10
 QS|                         eps_rho_rspace:                             1.0E-10
 QS|                         eps_gvg_rspace:                             1.0E-05
 QS|                         eps_ppl:                                    1.0E-02
 QS|                         eps_ppnl:                                   1.0E-07


 ATOMIC KIND INFORMATION

  1. Atomic kind: Au                                    Number of atoms:     288

     Orbital Basis Set                                         SZV-MOLOPT-SR-GTH

       Number of orbital shell sets:                                           1
       Number of orbital shells:                                               3
       Number of primitive Cartesian functions:                                5
       Number of Cartesian basis functions:                                   10
       Number of spherical basis functions:                                    9
       Norm type:                                                              2

       Normalised Cartesian orbitals:

                        Set   Shell   Orbital            Exponent    Coefficient

                          1       1    2s                2.950008       0.074626
                                                         1.563057      -0.007898
                                                         0.666664      -0.297688
                                                         0.251083       0.136809
                                                         0.081714       0.088198

                          1       2    3px               2.950008       0.148824
                                                         1.563057       0.025430
                                                         0.666664      -0.123003
                                                         0.251083       0.033648
                                                         0.081714       0.059008
                          1       2    3py               2.950008       0.148824
                                                         1.563057       0.025430
                                                         0.666664      -0.123003
                                                         0.251083       0.033648
                                                         0.081714       0.059008
                          1       2    3pz               2.950008       0.148824
                                                         1.563057       0.025430
                                                         0.666664      -0.123003
                                                         0.251083       0.033648
                                                         0.081714       0.059008

                          1       3    4dx2              2.950008      -0.139595
                                                         1.563057       1.319655
                                                         0.666664       0.377081
                                                         0.251083       0.046872
                                                         0.081714       0.001393
                          1       3    4dxy              2.950008      -0.241786
                                                         1.563057       2.285709
                                                         0.666664       0.653124
                                                         0.251083       0.081185
                                                         0.081714       0.002412
                          1       3    4dxz              2.950008      -0.241786
                                                         1.563057       2.285709
                                                         0.666664       0.653124
                                                         0.251083       0.081185
                                                         0.081714       0.002412
                          1       3    4dy2              2.950008      -0.139595
                                                         1.563057       1.319655
                                                         0.666664       0.377081
                                                         0.251083       0.046872
                                                         0.081714       0.001393
                          1       3    4dyz              2.950008      -0.241786
                                                         1.563057       2.285709
                                                         0.666664       0.653124
                                                         0.251083       0.081185
                                                         0.081714       0.002412
                          1       3    4dz2              2.950008      -0.139595
                                                         1.563057       1.319655
                                                         0.666664       0.377081
                                                         0.251083       0.046872
                                                         0.081714       0.001393

       Atomic covalent radius [Angstrom]:                                  1.340

       Atomic van der Waals radius [Angstrom]:                             1.660

     GTH Potential information for                                  GTH-PADE-q11

       Description:                       Goedecker-Teter-Hutter pseudopotential
                                           Goedecker et al., PRB 54, 1703 (1996)
                                          Hartwigsen et al., PRB 58, 3641 (1998)
                                                      Krack, TCA 114, 145 (2005)

       Gaussian exponent of the core charge distribution:               1.436369
       Electronic configuration (s p d ...):                           1   0  10

       Parameters of the local part of the GTH pseudopotential:

                          rloc        C1          C2          C3          C4
                        0.590000   11.604428

       Parameters of the non-local part of the GTH pseudopotential:

                   l      r(l)      h(i,j,l)

                   0    0.521180    2.538614   -1.046137
                                   -1.046137    2.701113
                   1    0.630613    0.394853   -0.869592
                                   -0.869592    2.057831
                   2    0.440706   -4.719070    0.727771
                                    0.727771   -1.650429

  2. Atomic kind: S                                     Number of atoms:       2

     Orbital Basis Set                                         SZV-MOLOPT-SR-GTH

       Number of orbital shell sets:                                           1
       Number of orbital shells:                                               2
       Number of primitive Cartesian functions:                                4
       Number of Cartesian basis functions:                                    4
       Number of spherical basis functions:                                    4
       Norm type:                                                              2

       Normalised Cartesian orbitals:

                        Set   Shell   Orbital            Exponent    Coefficient

                          1       1    2s                2.215855       0.308496
                                                         1.131471       0.138505
                                                         0.410168      -0.373736
                                                         0.140587      -0.040370

                          1       2    3px               2.215855       0.420434
                                                         1.131471      -0.319283
                                                         0.410168      -0.335323
                                                         0.140587      -0.030976
                          1       2    3py               2.215855       0.420434
                                                         1.131471      -0.319283
                                                         0.410168      -0.335323
                                                         0.140587      -0.030976
                          1       2    3pz               2.215855       0.420434
                                                         1.131471      -0.319283
                                                         0.410168      -0.335323
                                                         0.140587      -0.030976

       Atomic covalent radius [Angstrom]:                                  1.020

       Atomic van der Waals radius [Angstrom]:                             1.800

     GTH Potential information for                                   GTH-PADE-q6

       Description:                       Goedecker-Teter-Hutter pseudopotential
                                           Goedecker et al., PRB 54, 1703 (1996)
                                          Hartwigsen et al., PRB 58, 3641 (1998)
                                                      Krack, TCA 114, 145 (2005)

       Gaussian exponent of the core charge distribution:               2.834467
       Electronic configuration (s p d ...):                               2   4

       Parameters of the local part of the GTH pseudopotential:

                          rloc        C1          C2          C3          C4
                        0.420000   -6.554492

       Parameters of the non-local part of the GTH pseudopotential:

                   l      r(l)      h(i,j,l)

                   0    0.361757    7.905303   -1.731881
                                   -1.731881    4.471698
                   1    0.405285    3.866579

  3. Atomic kind: C                                     Number of atoms:       6

     Orbital Basis Set                                         SZV-MOLOPT-SR-GTH

       Number of orbital shell sets:                                           1
       Number of orbital shells:                                               2
       Number of primitive Cartesian functions:                                5
       Number of Cartesian basis functions:                                    4
       Number of spherical basis functions:                                    4
       Norm type:                                                              2

       Normalised Cartesian orbitals:

                        Set   Shell   Orbital            Exponent    Coefficient

                          1       1    2s                5.605331       0.322515
                                                         2.113016       0.213043
                                                         0.769911      -0.209686
                                                         0.348157      -0.219794
                                                         0.128212      -0.022789

                          1       2    3px               5.605331      -0.703879
                                                         2.113016      -0.642521
                                                         0.769911      -0.374851
                                                         0.348157      -0.139743
                                                         0.128212      -0.027849
                          1       2    3py               5.605331      -0.703879
                                                         2.113016      -0.642521
                                                         0.769911      -0.374851
                                                         0.348157      -0.139743
                                                         0.128212      -0.027849
                          1       2    3pz               5.605331      -0.703879
                                                         2.113016      -0.642521
                                                         0.769911      -0.374851
                                                         0.348157      -0.139743
                                                         0.128212      -0.027849

       Atomic covalent radius [Angstrom]:                                  0.770

       Atomic van der Waals radius [Angstrom]:                             1.700

     GTH Potential information for                                   GTH-PADE-q4

       Description:                       Goedecker-Teter-Hutter pseudopotential
                                           Goedecker et al., PRB 54, 1703 (1996)
                                          Hartwigsen et al., PRB 58, 3641 (1998)
                                                      Krack, TCA 114, 145 (2005)

       Gaussian exponent of the core charge distribution:               4.109048
       Electronic configuration (s p d ...):                               2   2

       Parameters of the local part of the GTH pseudopotential:

                          rloc        C1          C2          C3          C4
                        0.348830   -8.513771    1.228432

       Parameters of the non-local part of the GTH pseudopotential:

                   l      r(l)      h(i,j,l)

                   0    0.304553    9.522842
                   1    0.232677

  4. Atomic kind: H                                     Number of atoms:       4

     Orbital Basis Set                                         SZV-MOLOPT-SR-GTH

       Number of orbital shell sets:                                           1
       Number of orbital shells:                                               1
       Number of primitive Cartesian functions:                                5
       Number of Cartesian basis functions:                                    1
       Number of spherical basis functions:                                    1
       Norm type:                                                              2

       Normalised Cartesian orbitals:

                        Set   Shell   Orbital            Exponent    Coefficient

                          1       1    2s               10.068468      -0.133023
                                                         2.680223      -0.177618
                                                         0.791502      -0.258419
                                                         0.239116      -0.107525
                                                         0.082193      -0.014019

       Atomic covalent radius [Angstrom]:                                  0.320

       Atomic van der Waals radius [Angstrom]:                             1.090

     GTH Potential information for                                   GTH-PADE-q1

       Description:                       Goedecker-Teter-Hutter pseudopotential
                                           Goedecker et al., PRB 54, 1703 (1996)
                                          Hartwigsen et al., PRB 58, 3641 (1998)
                                                      Krack, TCA 114, 145 (2005)

       Gaussian exponent of the core charge distribution:              12.500000
       Electronic configuration (s p d ...):                                   1

       Parameters of the local part of the GTH pseudopotential:

                          rloc        C1          C2          C3          C4
                        0.200000   -4.180237    0.725075


 MOLECULE KIND INFORMATION


 All atoms are their own molecule, skipping detailed information


 TOTAL NUMBERS AND MAXIMUM NUMBERS

  Total number of            - Atomic kinds:                                   4
                             - Atoms:                                        300
                             - Shell sets:                                   300
                             - Shells:                                       884
                             - Primitive Cartesian functions:               1498
                             - Cartesian basis functions:                   2916
                             - Spherical basis functions:                   2628

  Maximum angular momentum of- Orbital basis functions:                        2
                             - Local part of the GTH pseudopotential:          2
                             - Non-local part of the GTH pseudopotential:      4


 MODULE QUICKSTEP: ATOMIC COORDINATES IN ANGSTROM

   Atom Kind Element         X             Y             Z       Z(eff)     Mass
      1    1 Au   79      1.042821      1.042821      1.042824  11.0000 196.9666
      2    1 Au   79      1.042821      1.042821      9.385400  11.0000 196.9666
      3    1 Au   79      1.042821      3.128465      3.128468  11.0000 196.9666
      4    1 Au   79      3.128465      1.042821      3.128468  11.0000 196.9666
      5    1 Au   79      3.128465      3.128465      1.042824  11.0000 196.9666
      6    1 Au   79      3.128465      3.128465      9.385400  11.0000 196.9666
      7    1 Au   79      1.042821      1.042821      5.214112  11.0000 196.9666
      8    1 Au   79      5.214109      1.042821      1.042824  11.0000 196.9666
      9    1 Au   79      5.214109      1.042821      9.385400  11.0000 196.9666
     10    1 Au   79     13.556685      1.042821      1.042824  11.0000 196.9666
     11    1 Au   79     13.556685      1.042821      9.385400  11.0000 196.9666
     12    1 Au   79      1.042821      5.214109      1.042824  11.0000 196.9666
     13    1 Au   79      1.042821      5.214109      9.385400  11.0000 196.9666
     14    1 Au   79      1.042821     13.556685      1.042824  11.0000 196.9666
     15    1 Au   79      1.042821     13.556685      9.385400  11.0000 196.9666
     16    1 Au   79      1.042821      3.128465      7.299756  11.0000 196.9666
     17    1 Au   79      5.214109      3.128465      3.128468  11.0000 196.9666
     18    1 Au   79     13.556685      3.128465      3.128468  11.0000 196.9666
     19    1 Au   79      1.042821      7.299753      3.128468  11.0000 196.9666
     20    1 Au   79      1.042821     15.642329      3.128468  11.0000 196.9666
     21    1 Au   79      3.128465      1.042821      7.299756  11.0000 196.9666
     22    1 Au   79      7.299753      1.042821      3.128468  11.0000 196.9666
     23    1 Au   79     15.642329      1.042821      3.128468  11.0000 196.9666
     24    1 Au   79      3.128465      5.214109      3.128468  11.0000 196.9666
     25    1 Au   79      3.128465     13.556685      3.128468  11.0000 196.9666
     26    1 Au   79      3.128465      3.128465      5.214112  11.0000 196.9666
     27    1 Au   79      7.299753      3.128465      1.042824  11.0000 196.9666
     28    1 Au   79      7.299753      3.128465      9.385400  11.0000 196.9666
     29    1 Au   79     15.642329      3.128465      1.042824  11.0000 196.9666
     30    1 Au   79     15.642329      3.128465      9.385400  11.0000 196.9666
     31    1 Au   79      3.128465      7.299753      1.042824  11.0000 196.9666
     32    1 Au   79      3.128465      7.299753      9.385400  11.0000 196.9666
     33    1 Au   79      3.128465     15.642329      1.042824  11.0000 196.9666
     34    1 Au   79      3.128465     15.642329      9.385400  11.0000 196.9666
     35    1 Au   79      1.042821      5.214109      5.214112  11.0000 196.9666
     36    1 Au   79      1.042821     13.556685      5.214112  11.0000 196.9666
     37    1 Au   79      5.214109      1.042821      5.214112  11.0000 196.9666
     38    1 Au   79     13.556685      1.042821      5.214112  11.0000 196.9666
     39    1 Au   79      5.214109      5.214109      1.042824  11.0000 196.9666
     40    1 Au   79      5.214109      5.214109      9.385400  11.0000 196.9666
     41    1 Au   79     13.556685     13.556685      1.042824  11.0000 196.9666
     42    1 Au   79     13.556685     13.556685      9.385400  11.0000 196.9666
     43    1 Au   79     13.556685      5.214109      1.042824  11.0000 196.9666
     44    1 Au   79     13.556685      5.214109      9.385400  11.0000 196.9666
     45    1 Au   79      5.214109     13.556685      1.042824  11.0000 196.9666
     46    1 Au   79      5.214109     13.556685      9.385400  11.0000 196.9666
     47    1 Au   79      1.042821      7.299753      7.299756  11.0000 196.9666
     48    1 Au   79      1.042821     15.642329      7.299756  11.0000 196.9666
     49    1 Au   79      5.214109      3.128465      7.299756  11.0000 196.9666
     50    1 Au   79     13.556685      3.128465      7.299756  11.0000 196.9666
     51    1 Au   79      5.214109      7.299753      3.128468  11.0000 196.9666
     52    1 Au   79     13.556685     15.642329      3.128468  11.0000 196.9666
     53    1 Au   79     13.556685      7.299753      3.128468  11.0000 196.9666
     54    1 Au   79      5.214109     15.642329      3.128468  11.0000 196.9666
     55    1 Au   79      3.128465      5.214109      7.299756  11.0000 196.9666
     56    1 Au   79      3.128465     13.556685      7.299756  11.0000 196.9666
     57    1 Au   79      7.299753      1.042821      7.299756  11.0000 196.9666
     58    1 Au   79     15.642329      1.042821      7.299756  11.0000 196.9666
     59    1 Au   79      7.299753      5.214109      3.128468  11.0000 196.9666
     60    1 Au   79     15.642329     13.556685      3.128468  11.0000 196.9666
     61    1 Au   79     15.642329      5.214109      3.128468  11.0000 196.9666
     62    1 Au   79      7.299753     13.556685      3.128468  11.0000 196.9666
     63    1 Au   79      3.128465      7.299753      5.214112  11.0000 196.9666
     64    1 Au   79      3.128465     15.642329      5.214112  11.0000 196.9666
     65    1 Au   79      7.299753      3.128465      5.214112  11.0000 196.9666
     66    1 Au   79     15.642329      3.128465      5.214112  11.0000 196.9666
     67    1 Au   79      7.299753      7.299753      1.042824  11.0000 196.9666
     68    1 Au   79      7.299753      7.299753      9.385400  11.0000 196.9666
     69    1 Au   79     15.642329     15.642329      1.042824  11.0000 196.9666
     70    1 Au   79     15.642329     15.642329      9.385400  11.0000 196.9666
     71    1 Au   79     15.642329      7.299753      1.042824  11.0000 196.9666
     72    1 Au   79     15.642329      7.299753      9.385400  11.0000 196.9666
     73    1 Au   79      7.299753     15.642329      1.042824  11.0000 196.9666
     74    1 Au   79      7.299753     15.642329      9.385400  11.0000 196.9666
     75    1 Au   79      1.042821      9.385397      1.042824  11.0000 196.9666
     76    1 Au   79      1.042821      9.385397      9.385400  11.0000 196.9666
     77    1 Au   79      9.385397      1.042821      1.042824  11.0000 196.9666
     78    1 Au   79      9.385397      1.042821      9.385400  11.0000 196.9666
     79    1 Au   79      1.042821     11.471041      3.128468  11.0000 196.9666
     80    1 Au   79      9.385397      3.128465      3.128468  11.0000 196.9666
     81    1 Au   79      3.128465      9.385397      3.128468  11.0000 196.9666
     82    1 Au   79     11.471041      1.042821      3.128468  11.0000 196.9666
     83    1 Au   79      3.128465     11.471041      1.042824  11.0000 196.9666
     84    1 Au   79      3.128465     11.471041      9.385400  11.0000 196.9666
     85    1 Au   79     11.471041      3.128465      1.042824  11.0000 196.9666
     86    1 Au   79     11.471041      3.128465      9.385400  11.0000 196.9666
     87    1 Au   79      1.042821      9.385397      5.214112  11.0000 196.9666
     88    1 Au   79      9.385397      5.214109      1.042824  11.0000 196.9666
     89    1 Au   79      9.385397      5.214109      9.385400  11.0000 196.9666
     90    1 Au   79      9.385397     13.556685      1.042824  11.0000 196.9666
     91    1 Au   79      9.385397     13.556685      9.385400  11.0000 196.9666
     92    1 Au   79      9.385397      1.042821      5.214112  11.0000 196.9666
     93    1 Au   79      5.214109      9.385397      1.042824  11.0000 196.9666
     94    1 Au   79      5.214109      9.385397      9.385400  11.0000 196.9666
     95    1 Au   79     13.556685      9.385397      1.042824  11.0000 196.9666
     96    1 Au   79     13.556685      9.385397      9.385400  11.0000 196.9666
     97    1 Au   79      1.042821     11.471041      7.299756  11.0000 196.9666
     98    1 Au   79      9.385397      7.299753      3.128468  11.0000 196.9666
     99    1 Au   79      9.385397     15.642329      3.128468  11.0000 196.9666
    100    1 Au   79      9.385397      3.128465      7.299756  11.0000 196.9666
    101    1 Au   79      5.214109     11.471041      3.128468  11.0000 196.9666
    102    1 Au   79     13.556685     11.471041      3.128468  11.0000 196.9666
    103    1 Au   79      3.128465      9.385397      7.299756  11.0000 196.9666
    104    1 Au   79     11.471041      5.214109      3.128468  11.0000 196.9666
    105    1 Au   79     11.471041     13.556685      3.128468  11.0000 196.9666
    106    1 Au   79     11.471041      1.042821      7.299756  11.0000 196.9666
    107    1 Au   79      7.299753      9.385397      3.128468  11.0000 196.9666
    108    1 Au   79     15.642329      9.385397      3.128468  11.0000 196.9666
    109    1 Au   79      3.128465     11.471041      5.214112  11.0000 196.9666
    110    1 Au   79     11.471041      7.299753      1.042824  11.0000 196.9666
    111    1 Au   79     11.471041      7.299753      9.385400  11.0000 196.9666
    112    1 Au   79     11.471041     15.642329      1.042824  11.0000 196.9666
    113    1 Au   79     11.471041     15.642329      9.385400  11.0000 196.9666
    114    1 Au   79     11.471041      3.128465      5.214112  11.0000 196.9666
    115    1 Au   79      7.299753     11.471041      1.042824  11.0000 196.9666
    116    1 Au   79      7.299753     11.471041      9.385400  11.0000 196.9666
    117    1 Au   79     15.642329     11.471041      1.042824  11.0000 196.9666
    118    1 Au   79     15.642329     11.471041      9.385400  11.0000 196.9666
    119    1 Au   79      5.214109      5.214109      5.214112  11.0000 196.9666
    120    1 Au   79     13.556685     13.556685      5.214112  11.0000 196.9666
    121    1 Au   79     13.556685      5.214109      5.214112  11.0000 196.9666
    122    1 Au   79      5.214109     13.556685      5.214112  11.0000 196.9666
    123    1 Au   79      5.214109      7.299753      7.299756  11.0000 196.9666
    124    1 Au   79     13.556685     15.642329      7.299756  11.0000 196.9666
    125    1 Au   79     13.556685      7.299753      7.299756  11.0000 196.9666
    126    1 Au   79      5.214109     15.642329      7.299756  11.0000 196.9666
    127    1 Au   79      7.299753      5.214109      7.299756  11.0000 196.9666
    128    1 Au   79     15.642329     13.556685      7.299756  11.0000 196.9666
    129    1 Au   79     15.642329      5.214109      7.299756  11.0000 196.9666
    130    1 Au   79      7.299753     13.556685      7.299756  11.0000 196.9666
    131    1 Au   79      7.299753      7.299753      5.214112  11.0000 196.9666
    132    1 Au   79     15.642329     15.642329      5.214112  11.0000 196.9666
    133    1 Au   79     15.642329      7.299753      5.214112  11.0000 196.9666
    134    1 Au   79      7.299753     15.642329      5.214112  11.0000 196.9666
    135    1 Au   79      5.214109      9.385397      5.214112  11.0000 196.9666
    136    1 Au   79     13.556685      9.385397      5.214112  11.0000 196.9666
    137    1 Au   79      9.385397      5.214109      5.214112  11.0000 196.9666
    138    1 Au   79      9.385397     13.556685      5.214112  11.0000 196.9666
    139    1 Au   79      5.214109     11.471041      7.299756  11.0000 196.9666
    140    1 Au   79     13.556685     11.471041      7.299756  11.0000 196.9666
    141    1 Au   79      9.385397      7.299753      7.299756  11.0000 196.9666
    142    1 Au   79      9.385397     15.642329      7.299756  11.0000 196.9666
    143    1 Au   79      7.299753      9.385397      7.299756  11.0000 196.9666
    144    1 Au   79     15.642329      9.385397      7.299756  11.0000 196.9666
    145    1 Au   79     11.471041      5.214109      7.299756  11.0000 196.9666
    146    1 Au   79     11.471041     13.556685      7.299756  11.0000 196.9666
    147    1 Au   79      7.299753     11.471041      5.214112  11.0000 196.9666
    148    1 Au   79     15.642329     11.471041      5.214112  11.0000 196.9666
    149    1 Au   79     11.471041      7.299753      5.214112  11.0000 196.9666
    150    1 Au   79     11.471041     15.642329      5.214112  11.0000 196.9666
    151    1 Au   79      9.385397      9.385397      1.042824  11.0000 196.9666
    152    1 Au   79      9.385397      9.385397      9.385400  11.0000 196.9666
    153    1 Au   79      9.385397     11.471041      3.128468  11.0000 196.9666
    154    1 Au   79     11.471041      9.385397      3.128468  11.0000 196.9666
    155    1 Au   79     11.471041     11.471041      1.042824  11.0000 196.9666
    156    1 Au   79     11.471041     11.471041      9.385400  11.0000 196.9666
    157    1 Au   79      9.385397      9.385397      5.214112  11.0000 196.9666
    158    1 Au   79      9.385397     11.471041      7.299756  11.0000 196.9666
    159    1 Au   79     11.471041      9.385397      7.299756  11.0000 196.9666
    160    1 Au   79     11.471041     11.471041      5.214112  11.0000 196.9666
    161    2 S    16      9.385401     11.471041     17.017724   6.0000  32.0650
    162    3 C     6      9.371421     11.464971     15.256224   4.0000  12.0107
    163    3 C     6      8.172851     11.459011     14.555754   4.0000  12.0107
    164    3 C     6     10.580701     11.459011     14.555754   4.0000  12.0107
    165    2 S    16      9.385401     11.471041     10.670944   6.0000  32.0650
    166    3 C     6      9.388801     11.474891     12.432444   4.0000  12.0107
    167    3 C     6     10.587371     11.480861     13.132904   4.0000  12.0107
    168    3 C     6      8.179521     11.480861     13.132904   4.0000  12.0107
    169    4 H     1      7.276671     11.438711     15.067114   1.0000   1.0079
    170    4 H     1     11.473461     11.438651     15.073034   1.0000   1.0079
    171    4 H     1     11.483551     11.501151     12.621554   1.0000   1.0079
    172    4 H     1      7.286761     11.501221     12.615634   1.0000   1.0079
    173    1 Au   79      1.042821      1.042821     18.303224  11.0000 196.9666
    174    1 Au   79      1.042821      3.128465     20.388868  11.0000 196.9666
    175    1 Au   79      3.128465      1.042821     20.388868  11.0000 196.9666
    176    1 Au   79      3.128465      3.128465     18.303224  11.0000 196.9666
    177    1 Au   79      1.042821      1.042821     22.474512  11.0000 196.9666
    178    1 Au   79      5.214109      1.042821     18.303224  11.0000 196.9666
    179    1 Au   79     13.556685      1.042821     18.303224  11.0000 196.9666
    180    1 Au   79      1.042821      5.214109     18.303224  11.0000 196.9666
    181    1 Au   79      1.042821     13.556685     18.303224  11.0000 196.9666
    182    1 Au   79      1.042821      3.128465     24.560156  11.0000 196.9666
    183    1 Au   79      5.214109      3.128465     20.388868  11.0000 196.9666
    184    1 Au   79     13.556685      3.128465     20.388868  11.0000 196.9666
    185    1 Au   79      1.042821      7.299753     20.388868  11.0000 196.9666
    186    1 Au   79      1.042821     15.642329     20.388868  11.0000 196.9666
    187    1 Au   79      3.128465      1.042821     24.560156  11.0000 196.9666
    188    1 Au   79      7.299753      1.042821     20.388868  11.0000 196.9666
    189    1 Au   79     15.642329      1.042821     20.388868  11.0000 196.9666
    190    1 Au   79      3.128465      5.214109     20.388868  11.0000 196.9666
    191    1 Au   79      3.128465     13.556685     20.388868  11.0000 196.9666
    192    1 Au   79      3.128465      3.128465     22.474512  11.0000 196.9666
    193    1 Au   79      7.299753      3.128465     18.303224  11.0000 196.9666
    194    1 Au   79     15.642329      3.128465     18.303224  11.0000 196.9666
    195    1 Au   79      3.128465      7.299753     18.303224  11.0000 196.9666
    196    1 Au   79      3.128465     15.642329     18.303224  11.0000 196.9666
    197    1 Au   79      1.042821      5.214109     22.474512  11.0000 196.9666
    198    1 Au   79      1.042821     13.556685     22.474512  11.0000 196.9666
    199    1 Au   79      5.214109      1.042821     22.474512  11.0000 196.9666
    200    1 Au   79     13.556685      1.042821     22.474512  11.0000 196.9666
    201    1 Au   79      5.214109      5.214109     18.303224  11.0000 196.9666
    202    1 Au   79     13.556685     13.556685     18.303224  11.0000 196.9666
    203    1 Au   79     13.556685      5.214109     18.303224  11.0000 196.9666
    204    1 Au   79      5.214109     13.556685     18.303224  11.0000 196.9666
    205    1 Au   79      1.042821      7.299753     24.560156  11.0000 196.9666
    206    1 Au   79      1.042821     15.642329     24.560156  11.0000 196.9666
    207    1 Au   79      5.214109      3.128465     24.560156  11.0000 196.9666
    208    1 Au   79     13.556685      3.128465     24.560156  11.0000 196.9666
    209    1 Au   79      5.214109      7.299753     20.388868  11.0000 196.9666
    210    1 Au   79     13.556685     15.642329     20.388868  11.0000 196.9666
    211    1 Au   79     13.556685      7.299753     20.388868  11.0000 196.9666
    212    1 Au   79      5.214109     15.642329     20.388868  11.0000 196.9666
    213    1 Au   79      3.128465      5.214109     24.560156  11.0000 196.9666
    214    1 Au   79      3.128465     13.556685     24.560156  11.0000 196.9666
    215    1 Au   79      7.299753      1.042821     24.560156  11.0000 196.9666
    216    1 Au   79     15.642329      1.042821     24.560156  11.0000 196.9666
    217    1 Au   79      7.299753      5.214109     20.388868  11.0000 196.9666
    218    1 Au   79     15.642329     13.556685     20.388868  11.0000 196.9666
    219    1 Au   79     15.642329      5.214109     20.388868  11.0000 196.9666
    220    1 Au   79      7.299753     13.556685     20.388868  11.0000 196.9666
    221    1 Au   79      3.128465      7.299753     22.474512  11.0000 196.9666
    222    1 Au   79      3.128465     15.642329     22.474512  11.0000 196.9666
    223    1 Au   79      7.299753      3.128465     22.474512  11.0000 196.9666
    224    1 Au   79     15.642329      3.128465     22.474512  11.0000 196.9666
    225    1 Au   79      7.299753      7.299753     18.303224  11.0000 196.9666
    226    1 Au   79     15.642329     15.642329     18.303224  11.0000 196.9666
    227    1 Au   79     15.642329      7.299753     18.303224  11.0000 196.9666
    228    1 Au   79      7.299753     15.642329     18.303224  11.0000 196.9666
    229    1 Au   79      1.042821      9.385397     18.303224  11.0000 196.9666
    230    1 Au   79      9.385397      1.042821     18.303224  11.0000 196.9666
    231    1 Au   79      1.042821     11.471041     20.388868  11.0000 196.9666
    232    1 Au   79      9.385397      3.128465     20.388868  11.0000 196.9666
    233    1 Au   79      3.128465      9.385397     20.388868  11.0000 196.9666
    234    1 Au   79     11.471041      1.042821     20.388868  11.0000 196.9666
    235    1 Au   79      3.128465     11.471041     18.303224  11.0000 196.9666
    236    1 Au   79     11.471041      3.128465     18.303224  11.0000 196.9666
    237    1 Au   79      1.042821      9.385397     22.474512  11.0000 196.9666
    238    1 Au   79      9.385397      5.214109     18.303224  11.0000 196.9666
    239    1 Au   79      9.385397     13.556685     18.303224  11.0000 196.9666
    240    1 Au   79      9.385397      1.042821     22.474512  11.0000 196.9666
    241    1 Au   79      5.214109      9.385397     18.303224  11.0000 196.9666
    242    1 Au   79     13.556685      9.385397     18.303224  11.0000 196.9666
    243    1 Au   79      1.042821     11.471041     24.560156  11.0000 196.9666
    244    1 Au   79      9.385397      7.299753     20.388868  11.0000 196.9666
    245    1 Au   79      9.385397     15.642329     20.388868  11.0000 196.9666
    246    1 Au   79      9.385397      3.128465     24.560156  11.0000 196.9666
    247    1 Au   79      5.214109     11.471041     20.388868  11.0000 196.9666
    248    1 Au   79     13.556685     11.471041     20.388868  11.0000 196.9666
    249    1 Au   79      3.128465      9.385397     24.560156  11.0000 196.9666
    250    1 Au   79     11.471041      5.214109     20.388868  11.0000 196.9666
    251    1 Au   79     11.471041     13.556685     20.388868  11.0000 196.9666
    252    1 Au   79     11.471041      1.042821     24.560156  11.0000 196.9666
    253    1 Au   79      7.299753      9.385397     20.388868  11.0000 196.9666
    254    1 Au   79     15.642329      9.385397     20.388868  11.0000 196.9666
    255    1 Au   79      3.128465     11.471041     22.474512  11.0000 196.9666
    256    1 Au   79     11.471041      7.299753     18.303224  11.0000 196.9666
    257    1 Au   79     11.471041     15.642329     18.303224  11.0000 196.9666
    258    1 Au   79     11.471041      3.128465     22.474512  11.0000 196.9666
    259    1 Au   79      7.299753     11.471041     18.303224  11.0000 196.9666
    260    1 Au   79     15.642329     11.471041     18.303224  11.0000 196.9666
    261    1 Au   79      5.214109      5.214109     22.474512  11.0000 196.9666
    262    1 Au   79     13.556685     13.556685     22.474512  11.0000 196.9666
    263    1 Au   79     13.556685      5.214109     22.474512  11.0000 196.9666
    264    1 Au   79      5.214109     13.556685     22.474512  11.0000 196.9666
    265    1 Au   79      5.214109      7.299753     24.560156  11.0000 196.9666
    266    1 Au   79     13.556685     15.642329     24.560156  11.0000 196.9666
    267    1 Au   79     13.556685      7.299753     24.560156  11.0000 196.9666
    268    1 Au   79      5.214109     15.642329     24.560156  11.0000 196.9666
    269    1 Au   79      7.299753      5.214109     24.560156  11.0000 196.9666
    270    1 Au   79     15.642329     13.556685     24.560156  11.0000 196.9666
    271    1 Au   79     15.642329      5.214109     24.560156  11.0000 196.9666
    272    1 Au   79      7.299753     13.556685     24.560156  11.0000 196.9666
    273    1 Au   79      7.299753      7.299753     22.474512  11.0000 196.9666
    274    1 Au   79     15.642329     15.642329     22.474512  11.0000 196.9666
    275    1 Au   79     15.642329      7.299753     22.474512  11.0000 196.9666
    276    1 Au   79      7.299753     15.642329     22.474512  11.0000 196.9666
    277    1 Au   79      5.214109      9.385397     22.474512  11.0000 196.9666
    278    1 Au   79     13.556685      9.385397     22.474512  11.0000 196.9666
    279    1 Au   79      9.385397      5.214109     22.474512  11.0000 196.9666
    280    1 Au   79      9.385397     13.556685     22.474512  11.0000 196.9666
    281    1 Au   79      5.214109     11.471041     24.560156  11.0000 196.9666
    282    1 Au   79     13.556685     11.471041     24.560156  11.0000 196.9666
    283    1 Au   79      9.385397      7.299753     24.560156  11.0000 196.9666
    284    1 Au   79      9.385397     15.642329     24.560156  11.0000 196.9666
    285    1 Au   79      7.299753      9.385397     24.560156  11.0000 196.9666
    286    1 Au   79     15.642329      9.385397     24.560156  11.0000 196.9666
    287    1 Au   79     11.471041      5.214109     24.560156  11.0000 196.9666
    288    1 Au   79     11.471041     13.556685     24.560156  11.0000 196.9666
    289    1 Au   79      7.299753     11.471041     22.474512  11.0000 196.9666
    290    1 Au   79     15.642329     11.471041     22.474512  11.0000 196.9666
    291    1 Au   79     11.471041      7.299753     22.474512  11.0000 196.9666
    292    1 Au   79     11.471041     15.642329     22.474512  11.0000 196.9666
    293    1 Au   79      9.385397      9.385397     18.303224  11.0000 196.9666
    294    1 Au   79      9.385397     11.471041     20.388868  11.0000 196.9666
    295    1 Au   79     11.471041      9.385397     20.388868  11.0000 196.9666
    296    1 Au   79     11.471041     11.471041     18.303224  11.0000 196.9666
    297    1 Au   79      9.385397      9.385397     22.474512  11.0000 196.9666
    298    1 Au   79      9.385397     11.471041     24.560156  11.0000 196.9666
    299    1 Au   79     11.471041      9.385397     24.560156  11.0000 196.9666
    300    1 Au   79     11.471041     11.471041     22.474512  11.0000 196.9666



 SCF PARAMETERS         Density guess:                                    ATOMIC
                        --------------------------------------------------------
                        max_scf:                                             100
                        max_scf_history:                                       0
                        max_diis:                                              4
                        --------------------------------------------------------
                        eps_scf:                                        1.00E-07
                        eps_scf_history:                                0.00E+00
                        eps_diis:                                       1.00E-01
                        eps_eigval:                                     1.00E-05
                        --------------------------------------------------------
                        level_shift [a.u.]:                             0.000000
                        added MOs                                       100    0
                        --------------------------------------------------------
                        Mixing method:                            BROYDEN_MIXING
                                                charge density mixing in g-space
                        --------------------------------------------------------
                        Smear method:                                FERMI_DIRAC
                        Electronic temperature [K]:                        293.0
                        Electronic temperature [a.u.]:                  9.28E-04
                        Accuracy threshold:                             1.00E-10
                        --------------------------------------------------------
                        No outer SCF

 PW_GRID| Information for grid number                                          1
 PW_GRID| Grid distributed over                                    24 processors
 PW_GRID| Real space group dimensions                                    24    1
 PW_GRID| the grid is blocked:                                                NO
 PW_GRID| Cutoff [a.u.]                                                    200.0
 PW_GRID| spherical cutoff:                                                   NO
 PW_GRID|   Bounds   1           -105     104                Points:         210
 PW_GRID|   Bounds   2           -105     104                Points:         210
 PW_GRID|   Bounds   3           -157     157                Points:         315
 PW_GRID| Volume element (a.u.^3)  0.3463E-02     Volume (a.u.^3)     48100.2523
 PW_GRID| Grid span                                                    FULLSPACE
 PW_GRID|   Distribution                         Average         Max         Min
 PW_GRID|   G-Vectors                           578812.5      578970      578760
 PW_GRID|   G-Rays                                2756.2        2757        2756
 PW_GRID|   Real Space Points                   578812.5      595350      529200

 PW_GRID| Information for grid number                                          2
 PW_GRID| Number of the reference grid                                         1
 PW_GRID| Grid distributed over                                    24 processors
 PW_GRID| Real space group dimensions                                    24    1
 PW_GRID| the grid is blocked:                                                NO
 PW_GRID| Cutoff [a.u.]                                                     66.7
 PW_GRID| spherical cutoff:                                                   NO
 PW_GRID|   Bounds   1            -60      59                Points:         120
 PW_GRID|   Bounds   2            -60      59                Points:         120
 PW_GRID|   Bounds   3            -90      89                Points:         180
 PW_GRID| Volume element (a.u.^3)  0.1856E-01     Volume (a.u.^3)     48100.2523
 PW_GRID| Grid span                                                    FULLSPACE
 PW_GRID|   Distribution                         Average         Max         Min
 PW_GRID|   G-Vectors                           108000.0      108360      107640
 PW_GRID|   G-Rays                                 900.0         903         897
 PW_GRID|   Real Space Points                   108000.0      108000      108000

 PW_GRID| Information for grid number                                          3
 PW_GRID| Number of the reference grid                                         1
 PW_GRID| Grid distributed over                                    24 processors
 PW_GRID| Real space group dimensions                                    24    1
 PW_GRID| the grid is blocked:                                                NO
 PW_GRID| Cutoff [a.u.]                                                     22.2
 PW_GRID| spherical cutoff:                                                   NO
 PW_GRID|   Bounds   1            -35      34                Points:          70
 PW_GRID|   Bounds   2            -35      34                Points:          70
 PW_GRID|   Bounds   3            -52      52                Points:         105
 PW_GRID| Volume element (a.u.^3)  0.9349E-01     Volume (a.u.^3)     48100.2523
 PW_GRID| Grid span                                                    FULLSPACE
 PW_GRID|   Distribution                         Average         Max         Min
 PW_GRID|   G-Vectors                            21437.5       21910       21070
 PW_GRID|   G-Rays                                 306.2         313         301
 PW_GRID|   Real Space Points                    21437.5       22050       14700

 PW_GRID| Information for grid number                                          4
 PW_GRID| Number of the reference grid                                         1
 PW_GRID| Grid distributed over                                    24 processors
 PW_GRID| Real space group dimensions                                    24    1
 PW_GRID| the grid is blocked:                                                NO
 PW_GRID| Cutoff [a.u.]                                                      7.4
 PW_GRID| spherical cutoff:                                                   NO
 PW_GRID|   Bounds   1            -20      19                Points:          40
 PW_GRID|   Bounds   2            -20      19                Points:          40
 PW_GRID|   Bounds   3            -30      29                Points:          60
 PW_GRID| Volume element (a.u.^3)  0.5010         Volume (a.u.^3)     48100.2523
 PW_GRID| Grid span                                                    FULLSPACE
 PW_GRID|   Distribution                         Average         Max         Min
 PW_GRID|   G-Vectors                             4000.0        4120        3880
 PW_GRID|   G-Rays                                 100.0         103          97
 PW_GRID|   Real Space Points                     4000.0        4800        2400

 POISSON| Solver                                                        PERIODIC
 POISSON| Periodicity                                                        XYZ

 RS_GRID| Information for grid number                                          1
 RS_GRID|   Bounds   1           -105     104                Points:         210
 RS_GRID|   Bounds   2           -105     104                Points:         210
 RS_GRID|   Bounds   3           -157     157                Points:         315
 RS_GRID| Real space distribution over                                  4 groups
 RS_GRID| Real space distribution along direction                              2
 RS_GRID| Border size                                                         30
 RS_GRID| Real space distribution over                                  6 groups
 RS_GRID| Real space distribution along direction                              3
 RS_GRID| Border size                                                         30
 RS_GRID|   Distribution                         Average         Max         Min
 RS_GRID|   Planes                                 112.5         113         112
 RS_GRID|   Distribution                         Average         Max         Min
 RS_GRID|   Planes                                 112.5         113         112

 RS_GRID| Information for grid number                                          2
 RS_GRID|   Bounds   1            -60      59                Points:         120
 RS_GRID|   Bounds   2            -60      59                Points:         120
 RS_GRID|   Bounds   3            -90      89                Points:         180
 RS_GRID| Real space distribution over                                  4 groups
 RS_GRID| Real space distribution along direction                              2
 RS_GRID| Border size                                                         21
 RS_GRID| Real space distribution over                                  6 groups
 RS_GRID| Real space distribution along direction                              3
 RS_GRID| Border size                                                         21
 RS_GRID|   Distribution                         Average         Max         Min
 RS_GRID|   Planes                                  72.0          72          72
 RS_GRID|   Distribution                         Average         Max         Min
 RS_GRID|   Planes                                  72.0          72          72

 RS_GRID| Information for grid number                                          3
 RS_GRID|   Bounds   1            -35      34                Points:          70
 RS_GRID|   Bounds   2            -35      34                Points:          70
 RS_GRID|   Bounds   3            -52      52                Points:         105
 RS_GRID| Real space fully replicated
 RS_GRID| Group size                                                           1

 RS_GRID| Information for grid number                                          4
 RS_GRID|   Bounds   1            -20      19                Points:          40
 RS_GRID|   Bounds   2            -20      19                Points:          40
 RS_GRID|   Bounds   3            -30      29                Points:          60
 RS_GRID| Real space fully replicated
 RS_GRID| Group size                                                           1

 Number of electrons:                                                       3208
 Number of occupied orbitals:                                               1604
 Number of molecular orbitals:                                              1704

 Number of orbital functions:                                               2628
 Number of independent orbital functions:                                   2628

 Extrapolation method: initial_guess

 Atomic guess: The first density matrix is obtained in terms of atomic orbitals
               and electronic configurations assigned to each atomic kind

 Guess for atomic kind: Au

 Electronic structure
    Total number of core electrons                                         68.00
    Total number of valence electrons                                      11.00
    Total number of electrons                                              79.00
    Multiplicity                                                   not specified
    S   [  2.00  2.00  2.00  2.00  2.00] 1.00
    P   [  6.00  6.00  6.00  6.00]
    D   [ 10.00 10.00]10.00
    F   [ 14.00]


 *******************************************************************************
                  Iteration          Convergence                     Energy [au]
 *******************************************************************************
                          1         0.00000                     -33.033218197848

 Energy components [Hartree]           Total Energy ::          -33.033218197848
                                        Band Energy ::           -1.147505983145
                                     Kinetic Energy ::           24.744064437587
                                   Potential Energy ::          -57.777282635435
                                      Virial (-V/T) ::            2.334995642336
                                        Core Energy ::          -60.197309615487
                                          XC Energy ::           -5.116883226844
                                     Coulomb Energy ::           32.280974644483
                       Total Pseudopotential Energy ::          -85.042885173964
                       Local Pseudopotential Energy ::          -66.341694915099
                    Nonlocal Pseudopotential Energy ::          -18.701190258865
                                        Confinement ::            1.015111208892

 Orbital energies  State     L     Occupation   Energy[a.u.]          Energy[eV]

                       1     0          1.000      -0.213792           -5.817572

                       1     2         10.000      -0.093371           -2.540765


 Total Electron Density at R=0:                                         0.000035

 Guess for atomic kind: S

 Electronic structure
    Total number of core electrons                                         10.00
    Total number of valence electrons                                       6.00
    Total number of electrons                                              16.00
    Multiplicity                                                   not specified
    S   [  2.00  2.00] 2.00
    P   [  6.00] 4.00


 *******************************************************************************
                  Iteration          Convergence                     Energy [au]
 *******************************************************************************
                          1         0.00000                      -9.853460757856

 Energy components [Hartree]           Total Energy ::           -9.853460757856
                                        Band Energy ::           -2.356337656970
                                     Kinetic Energy ::            4.823553161963
                                   Potential Energy ::          -14.677013919818
                                      Virial (-V/T) ::            3.042780586634
                                        Core Energy ::          -17.027141804256
                                          XC Energy ::           -2.306120006027
                                     Coulomb Energy ::            9.479801052427
                       Total Pseudopotential Energy ::          -21.894561428820
                       Local Pseudopotential Energy ::          -24.454849976053
                    Nonlocal Pseudopotential Energy ::            2.560288547233
                                        Confinement ::            0.438664626013

 Orbital energies  State     L     Occupation   Energy[a.u.]          Energy[eV]

                       1     0          2.000      -0.651558          -17.729806

                       1     1          4.000      -0.263305           -7.164899


 Total Electron Density at R=0:                                         0.002164

 Guess for atomic kind: C

 Electronic structure
    Total number of core electrons                                          2.00
    Total number of valence electrons                                       4.00
    Total number of electrons                                               6.00
    Multiplicity                                                   not specified
    S   [  2.00] 2.00
    P      2.00


 *******************************************************************************
                  Iteration          Convergence                     Energy [au]
 *******************************************************************************
                          1         0.00000                      -5.203769106903

 Energy components [Hartree]           Total Energy ::           -5.203769106903
                                        Band Energy ::           -1.102062531975
                                     Kinetic Energy ::            4.436946353555
                                   Potential Energy ::           -9.640715460459
                                      Virial (-V/T) ::            2.172826690306
                                        Core Energy ::           -8.622900759898
                                          XC Energy ::           -1.549179882233
                                     Coulomb Energy ::            4.968311535227
                       Total Pseudopotential Energy ::          -13.085360153352
                       Local Pseudopotential Energy ::          -13.648615018058
                    Nonlocal Pseudopotential Energy ::            0.563254864706
                                        Confinement ::            0.255130398990

 Orbital energies  State     L     Occupation   Energy[a.u.]          Energy[eV]

                       1     0          2.000      -0.416370          -11.330000

                       1     1          2.000      -0.134661           -3.664323


 Total Electron Density at R=0:                                         0.013874

 Guess for atomic kind: H

 Electronic structure
    Total number of core electrons                                          0.00
    Total number of valence electrons                                       1.00
    Total number of electrons                                               1.00
    Multiplicity                                                   not specified
    S      1.00


 *******************************************************************************
                  Iteration          Convergence                     Energy [au]
 *******************************************************************************
                          1         0.00000                      -0.372474116344

 Energy components [Hartree]           Total Energy ::           -0.372474116344
                                        Band Energy ::           -0.184689713228
                                     Kinetic Energy ::            0.795946116619
                                   Potential Energy ::           -1.168420232963
                                      Virial (-V/T) ::            1.467963984706
                                        Core Energy ::           -0.452545141516
                                          XC Energy ::           -0.314416247311
                                     Coulomb Energy ::            0.394487272483
                       Total Pseudopotential Energy ::           -1.259976600556
                       Local Pseudopotential Energy ::           -1.259976600556
                    Nonlocal Pseudopotential Energy ::            0.000000000000
                                        Confinement ::            0.114853424211

 Orbital energies  State     L     Occupation   Energy[a.u.]          Energy[eV]

                       1     0          1.000      -0.184690           -5.025663


 Total Electron Density at R=0:                                         0.476934
 Re-scaling the density matrix to get the right number of electrons
                  # Electrons              Trace(P)               Scaling factor
                         3208              3208.000                        1.000


 SCF WAVEFUNCTION OPTIMIZATION

  Step     Update method      Time    Convergence         Total energy    Change
  ------------------------------------------------------------------------------
     1 NoMix/Diag. 0.30E+00    1.6     1.34341932     -9642.8016363258 -9.64E+03
     2 Broy./Diag. 0.30E+00    2.1     0.52700212     -9871.9250619506 -2.29E+02
     3 Broy./Diag. 0.30E+00    2.2     0.15250862     -9734.4152813315  1.38E+02
     4 Broy./Diag. 0.30E+00    2.1     0.01991908     -9662.8701391044  7.15E+01
     5 Broy./Diag. 0.30E+00    2.1     0.01405574     -9644.0051772825  1.89E+01
     6 Broy./Diag. 0.30E+00    2.1     0.00754916     -9642.0877825587  1.92E+00
     7 Broy./Diag. 0.30E+00    2.2     0.00487390     -9642.1352955018 -4.75E-02
     8 Broy./Diag. 0.30E+00    2.2     0.00284161     -9642.0403873960  9.49E-02
     9 Broy./Diag. 0.30E+00    2.3     0.00186981     -9641.9094660275  1.31E-01
    10 Broy./Diag. 0.30E+00    2.3     0.00082007     -9641.7255959271  1.84E-01
    11 Broy./Diag. 0.30E+00    2.3     0.00057478     -9641.6119525503  1.14E-01
    12 Broy./Diag. 0.30E+00    2.3     0.00017209     -9641.5900627339  2.19E-02
    13 Broy./Diag. 0.30E+00    2.3     0.00019938     -9641.5930822363 -3.02E-03
    14 Broy./Diag. 0.30E+00    2.3     0.00010975     -9641.5909114509  2.17E-03
    15 Broy./Diag. 0.30E+00    2.3     0.00002834     -9641.5859965290  4.91E-03
    16 Broy./Diag. 0.30E+00    2.3     0.00003301     -9641.5838138967  2.18E-03
    17 Broy./Diag. 0.30E+00    2.3     0.00000863     -9641.5851204612 -1.31E-03
    18 Broy./Diag. 0.30E+00    2.3     0.00000579     -9641.5865218217 -1.40E-03
    19 Broy./Diag. 0.30E+00    2.3     0.00000513     -9641.5865054502  1.64E-05
    20 Broy./Diag. 0.30E+00    2.3     0.00000277     -9641.5860323654  4.73E-04
    21 Broy./Diag. 0.30E+00    2.3     0.00000117     -9641.5859540854  7.83E-05
    22 Broy./Diag. 0.30E+00    2.3     0.00000107     -9641.5860641529 -1.10E-04
    23 Broy./Diag. 0.30E+00    2.3     0.00000037     -9641.5861333596 -6.92E-05
    24 Broy./Diag. 0.30E+00    2.3     0.00000034     -9641.5861400602 -6.70E-06
    25 Broy./Diag. 0.30E+00    2.3     0.00000016     -9641.5861265863  1.35E-05
    26 Broy./Diag. 0.30E+00    2.3     0.00000010     -9641.5861167089  9.88E-06

  *** SCF run converged in    26 steps ***


  Electronic density on regular grids:      -3208.0000000147       -0.0000000147
  Core density on regular grids:             3207.9999994758       -0.0000005242
  Total charge density on r-space grids:       -0.0000005389
  Total charge density g-space grids:          -0.0000005389

  Overlap energy of the core charge distribution:               0.00001391209773
  Self energy of the core charge distribution:             -16793.39652573696731
  Core Hamiltonian energy:                                   5312.26071361202139
  Hartree energy:                                            3346.79061058399384
  Exchange-correlation energy:                              -1507.23582561578064
  Electronic entropic energy:                                  -0.00510346457192
  Fermi energy:                                                 0.20109555971696

  Total energy:                                             -9641.58611670885875

 The electron density is written in cube file format to the file:

 dft_wfn-ELECTRON_DENSITY-1_0.cube

 !-----------------------------------------------------------------------------!
                     Mulliken Population Analysis

 #  Atom  Element  Kind  Atomic population                           Net charge
       1     Au       1         10.996262                              0.003738
       2     Au       1         11.068904                             -0.068904
       3     Au       1         10.994131                              0.005869
       4     Au       1         10.993024                              0.006976
       5     Au       1         10.996130                              0.003870
       6     Au       1         11.068833                             -0.068833
       7     Au       1         10.986002                              0.013998
       8     Au       1         10.997194                              0.002806
       9     Au       1         11.068920                             -0.068920
      10     Au       1         10.997197                              0.002803
      11     Au       1         11.068912                             -0.068912
      12     Au       1         10.996262                              0.003738
      13     Au       1         11.068902                             -0.068902
      14     Au       1         10.993756                              0.006244
      15     Au       1         11.069848                             -0.069848
      16     Au       1         10.958776                              0.041224
      17     Au       1         10.994246                              0.005754
      18     Au       1         10.994248                              0.005752
      19     Au       1         10.994242                              0.005758
      20     Au       1         10.994245                              0.005755
[...]
       0.13741601       0.13742015       0.13754257       0.13767210
       0.13770854       0.13775459       0.13776627       0.13778179
       0.13779748       0.13812448       0.13816241       0.13830294
       0.13857503       0.13858146       0.13869427       0.13870839
       0.13872726       0.13939997       0.13940022       0.13974872
       0.13990819       0.13990858       0.14314417       0.14556610
       0.14614924       0.14895726       0.14927081       0.15012528
       0.15023811       0.15025140       0.15041655       0.15298903
       0.15338487       0.15342818       0.15349159       0.15365023
       0.15450034       0.15452350       0.15456485       0.15463324
       0.15476911       0.15591189       0.15613610       0.15620239
       0.15715663       0.15730363       0.15774715       0.15812171
       0.15917753       0.16767029       0.16835156       0.17010298
       0.17582045       0.17594364       0.17594396       0.17747679
       0.17748864       0.17782598       0.17840601       0.17902917
       0.17913704       0.17918609       0.17946755       0.17961008
       0.18002321       0.18002940       0.18006659       0.18018118
       0.18029422       0.18029734       0.18045691       0.18082338
       0.18273466       0.18336627       0.18356257       0.18361694
       0.18361932       0.18450328       0.18452765       0.18577022
       0.18773073       0.18883189       0.18975193       0.18976885
       0.18978029       0.18981866       0.19022269       0.20208814
       0.20222058       0.20228396       0.20277735       0.20362104
       0.20374618       0.20552297       0.20588581       0.20598273
       0.20613365       0.20614385       0.20654772       0.20672002
       0.20674290       0.20700125       0.20700198       0.20727106
       0.20740810       0.20911312       0.20918165       0.21036402
       0.21218743       0.21361489       0.21647195       0.21685312
       0.21723721       0.21727462       0.21744378       0.21858689
       0.21966320       0.21969326       0.21972209       0.22089066
       0.22098416       0.22142248       0.22143663       0.22152285
       0.22183484       0.22246595       0.22263021
 Fermi Energy [eV] :    5.472088
  
  Lowest eigenvalues of the unoccupied subspace spin            1
 ---------------------------------------------
       0.22353014

 ENERGY| Total FORCE_EVAL ( QS ) energy [a.u.]:            -9641.586116708858754

 -------------------------------------------------------------------------------
 -                                                                             -
 -                                DBCSR STATISTICS                             -
 -                                                                             -
 -------------------------------------------------------------------------------
 COUNTER                                    TOTAL       BLAS       SMM       ACC
 flops     1 x     1 x   136                70720       0.0%    100.0%      0.0%
 flops     1 x     1 x   128               399360       0.0%    100.0%      0.0%
 flops     1 x     1 x   160               416000       0.0%    100.0%      0.0%
 flops     4 x     1 x   136               452608       0.0%    100.0%      0.0%
 flops     1 x     4 x   136               452608       0.0%    100.0%      0.0%
 flops     4 x     1 x   128              2555904       0.0%    100.0%      0.0%
 flops     1 x     4 x   128              2555904       0.0%    100.0%      0.0%
 flops     4 x     1 x   160              2662400       0.0%    100.0%      0.0%
 flops     1 x     4 x   160              2662400       0.0%    100.0%      0.0%
 flops     4 x     4 x   136              4073472       0.0%    100.0%      0.0%
 flops     9 x     1 x   136             19858176       0.0%    100.0%      0.0%
 flops     1 x     9 x   136             20367360       0.0%    100.0%      0.0%
 flops     4 x     4 x   128             23003136       0.0%    100.0%      0.0%
 flops     4 x     4 x   160             23961600       0.0%    100.0%      0.0%
 flops     9 x     1 x   128            112140288       0.0%    100.0%      0.0%
 flops     1 x     9 x   128            115015680       0.0%    100.0%      0.0%
 flops     9 x     1 x   160            116812800       0.0%    100.0%      0.0%
 flops     1 x     9 x   160            119808000       0.0%    100.0%      0.0%
 flops     4 x     9 x   136            151482240       0.0%    100.0%      0.0%
 flops     9 x     4 x   136            153009792       0.0%    100.0%      0.0%
 flops     4 x     9 x   128            855429120       0.0%    100.0%      0.0%
 flops     9 x     4 x   128            864055296       0.0%    100.0%      0.0%
 flops     4 x     9 x   160            891072000       0.0%    100.0%      0.0%
 flops     9 x     4 x   160            900057600       0.0%    100.0%      0.0%
 flops     9 x     9 x   136          19421296128       0.0%    100.0%      0.0%
 flops     9 x     9 x   128         109673201664       0.0%    100.0%      0.0%
 flops     9 x     9 x   160         114242918400       0.0%    100.0%      0.0%
 flops inhomo. stacks                           0       0.0%      0.0%      0.0%
 flops total                       247.719791E+09       0.0%    100.0%      0.0%
 flops max/rank                     10.825417E+09       0.0%    100.0%      0.0%
 matmuls inhomo. stacks                         0       0.0%      0.0%      0.0%
 matmuls total                           11172720       0.0%    100.0%      0.0%
 number of processed stacks                 52728       0.0%    100.0%      0.0%
 average stack size                                     0.0     211.9       0.0
 marketing flops                   589.915685E+09
 -------------------------------------------------------------------------------
 # multiplications                             26
 max memory usage/rank             860.831744E+06
 # max total images/rank                        3
 # max 3D layers                                1
 # MPI messages exchanged                   11856
 MPI messages size (bytes):
  total size                         7.451578E+09
  min size                         444.416000E+03
  max size                         844.800000E+03
  average size                     628.506938E+03
 MPI breakdown and total messages size (bytes):
             size <=      128                   0                        0
       128 < size <=     8192                   0                        0
      8192 < size <=    32768                   0                        0
     32768 < size <=   131072                   0                        0
    131072 < size <=  4194304               11856               7451578368
   4194304 < size <= 16777216                   0                        0
  16777216 < size                               0                        0
 -------------------------------------------------------------------------------

 *** WARNING in dbcsr_mm.F:290 :: Using a non-square number of MPI ranks ***
 *** might lead to poor performance. Used ranks: 24 Suggested: 25 49     ***

 -------------------------------------------------------------------------------
 -                                                                             -
 -                      DBCSR MESSAGE PASSING PERFORMANCE                      -
 -                                                                             -
 -------------------------------------------------------------------------------
 ROUTINE             CALLS      AVE VOLUME [Bytes]
 MP_Bcast               28                     12.
 MP_Allreduce          256                     13.
 MP_Alltoall           740                 682086.
 MP_ISend             1248                 279945.
 MP_IRecv             1196                 285388.
 -------------------------------------------------------------------------------

 -------------------------------------------------------------------------------
 -                                                                             -
 -                                DBM STATISTICS                               -
 -                                                                             -
 -------------------------------------------------------------------------------
    M  x    N  x    K                                          COUNT     PERCENT
 -------------------------------------------------------------------------------

 -------------------------------------------------------------------------------
 -                                                                             -
 -                                GRID STATISTICS                              -
 -                                                                             -
 -------------------------------------------------------------------------------
 LP    KERNEL             BACKEND                              COUNT     PERCENT
 4     collocate ortho    REF                                6321024      48.69%
 4     integrate ortho    REF                                6086912      46.89%
 3     collocate ortho    REF                                 122715       0.95%
 3     integrate ortho    REF                                 118170       0.91%
 2     collocate ortho    REF                                  87363       0.67%
 2     integrate ortho    REF                                  81354       0.63%
 0     collocate general  REF                                  64800       0.50%
 0     integrate general  REF                                  57600       0.44%
 1     collocate ortho    REF                                  15736       0.12%
 1     integrate ortho    REF                                  15080       0.12%
 0     collocate ortho    REF                                   5170       0.04%
 0     integrate ortho    REF                                   4940       0.04%
 -------------------------------------------------------------------------------

 MEMORY| Estimated peak process memory [MiB]                                 829

 -------------------------------------------------------------------------------
 ----                             MULTIGRID INFO                            ----
 -------------------------------------------------------------------------------
 count for grid        1:          45967          cutoff [a.u.]          200.00
 count for grid        2:         158165          cutoff [a.u.]           66.67
 count for grid        3:         108648          cutoff [a.u.]           22.22
 count for grid        4:         143952          cutoff [a.u.]            7.41
 total gridlevel count  :         456732

 -------------------------------------------------------------------------------
 -                                                                             -
 -                         MESSAGE PASSING PERFORMANCE                         -
 -                                                                             -
 -------------------------------------------------------------------------------

 ROUTINE             CALLS      AVE VOLUME [Bytes]
 MP_Group                4
 MP_Bcast              129                4981630.
 MP_Allreduce          686                   1773.
 MP_Sync                30
 MP_Alltoall           368               15609930.
 MP_ISendRecv         2530                 107400.
 MP_Wait              6033
 MP_ISend             3164                 480122.
 MP_IRecv             3164                 480177.
 MP_Recv               102                 672768.
 MP_Write_All            3                1092525.
 -------------------------------------------------------------------------------


 -------------------------------------------------------------------------------
 -                                                                             -
 -                           R E F E R E N C E S                               -
 -                                                                             -
 -------------------------------------------------------------------------------
 
 CP2K version 2022.1 (Development Version), the CP2K developers group (2022).
 CP2K is freely available from https://www.cp2k.org/ .

 Kuehne,Thomas D.; Iannuzzi,Marcella; Del Ben,Mauro;
 Rybkin,Vladimir V.; Seewald,Patrick; Stein,Frederick; Laino,Teodoro;
 Khaliullin,Rustam Z.; Schuett,Ole; Schiffmann,Florian; Golze,Dorothea;
 Wilhelm,Jan; Chulkov,Sergey; Bani-Hashemian,Mohammad Hossein;
 Weber,Valery; Borstnik,Urban; Taillefumier,Mathieu;
 Jakobovits,Alice Shoshana; Lazzaro,Alfio; Pabst,Hans; Mueller,Tiziano;
 Schade,Robert; Guidon,Manuel; Andermatt,Samuel; Holmberg,Nico;
 Schenter,Gregory K.; Hehn,Anna; Bussy,Augustin; Belleflamme,Fabian;
 Tabacchi,Gloria; Gloess,Andreas; Lass,Michael; Bethune,Iain;
 Mundy,Christopher J.; Plessl,Christian; Watkins,Matt;
 VandeVondele,Joost; Krack,Matthias; Hutter,Juerg. 
 The Journal of Chemical Physics, 152 (19), (2020). 
 CP2K: An electronic structure and molecular dynamics software package -
 Quickstep: Efficient and accurate electronic structure calculations.
 https://doi.org/10.1063/5.0007045

 Schuett, Ole; Messmer, Peter; Hutter, Juerg; VandeVondele, Joost. 
 Electronic Structure Calculations on Graphics Processing Units, John
 Wiley & Sons, Ltd, 173-190 (2016). 
 GPU-Accelerated Sparse Matrix-Matrix Multiplication for
 Linear Scaling Density Functional Theory.
 https://doi.org/10.1002/9781118670712.ch8

 Heinecke, A; Henry, G; Hutchinson, M; Pabst, H. 
 Proceedings of Intl. Supercomputing Conference, 981-991 (2016). 
 LIBXSMM: Accelerating Small Matrix Multiplications
 by Runtime Code Generation.
 https://doi.org/10.1109/SC.2016.83

 Borstnik, U; VandeVondele, J; Weber, V; Hutter, J. 
 PARALLEL COMPUTING, 40 (5-6), 47-58 (2014). 
 Sparse matrix multiplication: The distributed block-compressed sparse
 row library.
 https://doi.org/10.1016/j.parco.2014.03.012

 Hutter, J; Iannuzzi, M; Schiffmann, F; VandeVondele, J. 
 WIREs Comput Mol Sci., 4 (1), 15-25 (2014). 
 CP2K: atomistic simulations of condensed matter systems.
 https://doi.org/10.1002/wcms.1159

 VandeVondele, J; Hutter, J. 
 JOURNAL OF CHEMICAL PHYSICS, 127 (11), 114105 (2007). 
 Gaussian basis sets for accurate calculations on molecular systems in
 gas and condensed phases.
 https://doi.org/10.1063/1.2770708

 Krack, M. 
 THEORETICAL CHEMISTRY ACCOUNTS, 114 (1-3), 145-152 (2005). 
 Pseudopotentials for H to Kr optimized for gradient-corrected
 exchange-correlation functionals.
 https://doi.org/10.1007/s00214-005-0655-y

 VandeVondele, J; Krack, M; Mohamed, F; Parrinello, M; Chassaing, T;
 Hutter, J. COMPUTER PHYSICS COMMUNICATIONS, 167 (2), 103-128 (2005). 
 QUICKSTEP: Fast and accurate density functional calculations using a
 mixed Gaussian and plane waves approach.
 https://doi.org/10.1016/j.cpc.2004.12.014

 Frigo, M; Johnson, SG. 
 PROCEEDINGS OF THE IEEE, 93 (2), 216-231 (2005). 
 The design and implementation of FFTW3.
 https://doi.org/10.1109/JPROC.2004.840301

 Hartwigsen, C; Goedecker, S; Hutter, J. 
 PHYSICAL REVIEW B, 58 (7), 3641-3662 (1998). 
 Relativistic separable dual-space Gaussian pseudopotentials from H to Rn.
 https://doi.org/10.1103/PhysRevB.58.3641

 Lippert, G; Hutter, J; Parrinello, M. 
 MOLECULAR PHYSICS, 92 (3), 477-487 (1997). 
 A hybrid Gaussian and plane wave density functional scheme.
 https://doi.org/10.1080/002689797170220

 Goedecker, S; Teter, M; Hutter, J. 
 PHYSICAL REVIEW B, 54 (3), 1703-1710 (1996). 
 Separable dual-space Gaussian pseudopotentials.
 https://doi.org/10.1103/PhysRevB.54.1703


 -------------------------------------------------------------------------------
 -                                                                             -
 -                                T I M I N G                                  -
 -                                                                             -
 -------------------------------------------------------------------------------
 SUBROUTINE                       CALLS  ASD         SELF TIME        TOTAL TIME
                                MAXIMUM       AVERAGE  MAXIMUM  AVERAGE  MAXIMUM
 CP2K                                 1  1.0    0.143    0.145   63.508   63.509
 qs_energies                          1  2.0    0.000    0.000   62.915   62.916
 scf_env_do_scf                       1  3.0    0.000    0.000   58.810   58.846
 scf_env_do_scf_inner_loop           26  4.0    0.001    0.004   58.810   58.845
 qs_scf_new_mos                      26  5.0    0.000    0.001   19.455   19.469
 eigensolver                         26  6.0    0.002    0.002   17.439   17.451
 qs_ks_update_qs_env                 26  5.0    0.000    0.000   16.845   16.848
 rebuild_ks_matrix                   26  6.0    0.000    0.000   16.823   16.828
 qs_ks_build_kohn_sham_matrix        26  7.0    0.004    0.005   16.823   16.827
 qs_rho_update_rho_low               27  5.0    0.000    0.000   14.891   14.896
 calculate_rho_elec                  27  6.0    0.057    0.061   14.890   14.896
 cp_fm_syevd                         26  7.0    0.000    0.001   13.423   13.426
 cp_fm_syevd_base                    26  8.0   13.420   13.424   13.420   13.424
 sum_up_and_integrate                26  8.0    0.197    0.208   12.510   12.513
 integrate_v_rspace                  26  9.0    0.001    0.002   12.313   12.331
 pw_transfer                        353  8.8    0.030    0.034   11.237   11.575
 fft_wrap_pw1pw2                    301  9.8    0.004    0.005   10.861   11.181
 fft_wrap_pw1pw2_200                136 10.1    1.012    1.077   10.122   10.478
 gspace_mixing                       25  5.0    0.053    0.056    8.345    8.345
 grid_collocate_task_list            27  7.0    8.084    8.225    8.084    8.225
 grid_integrate_task_list            26 10.0    7.665    7.773    7.665    7.773
 fft3d_ps                           301 11.8    4.777    5.230    7.340    7.747
 density_rs2pw                       27  7.0    0.002    0.003    6.557    6.843
 broyden_mixing                      25  6.0    6.366    6.421    6.411    6.424
 rs_pw_transfer                     223  9.3    0.005    0.005    4.202    4.543
 potential_pw2rs                     26 10.0    0.005    0.006    4.479    4.496
 cp_fm_cholesky_restore              78  7.0    3.786    3.833    3.786    3.833
 scf_post_calculation_gpw             1  3.0    0.000    0.000    2.273    2.279
 mp_waitany                        3164 11.3    1.626    2.078    1.626    2.078
 rs_pw_transfer_RS2PW_200            31  8.8    0.647    0.787    1.698    1.994
 rs_pw_transfer_PW2RS_200            27 11.9    0.752    0.784    1.587    1.638
 x_to_yz                            158 13.1    0.867    0.984    1.492    1.605
 calculate_dm_sparse                 26  6.0    0.003    0.004    1.538    1.553
 cp_dbcsr_plus_fm_fm_t_native        26  7.0    0.001    0.001    1.508    1.523
 mp_alltoall_z22v                   301 13.8    1.174    1.416    1.174    1.416
 qs_vxc_create                       26  8.0    0.001    0.001    1.190    1.401
 xc_vxc_pw_create                    26  9.0    0.056    0.061    1.189    1.400
 pw_scatter_p                       158 12.1    1.350    1.385    1.350    1.385
 -------------------------------------------------------------------------------

 The number of warnings for this run is : 1
 
 -------------------------------------------------------------------------------
  **** **** ******  **  PROGRAM ENDED AT                 2022-10-20 11:29:42.242
 ***** ** ***  *** **   PROGRAM RAN ON                     cn1028.scarf.rl.ac.uk
 **    ****   ******    PROGRAM RAN BY                                 scarf1157
 ***** **    ** ** **   PROGRAM PROCESS ID                                 58130
  **** **  *******  **  PROGRAM STOPPED IN /work4/scd/scarf1157/work/testing/cp2
                                           k-smeagol/bdt/hollow-site/em-cp2k/sz
