SIESTA 1.3.7  -- [1.3f1 release] (04 Feb 2004)
Architecture  : mpif90
Compiler flags:  -O3 -check bounds -fp-model strict
PARALLEL version

* Running on   64 nodes in parallel
>> Start of run:  17-JAN-2024  11:46:52

                           ***********************       
                           *  WELCOME TO SIESTA  *       
                           ***********************       

reinit: Reading from standard input
************************** Dump of input data file ****************************
SystemName                   IV          # Descriptive name of the system
SystemLabel                     IV               # Short name for naming files
NumberOfAtoms    183
NumberOfSpecies                 7               # Number of species
PAO.BasisType                   split
%block ChemicalSpeciesLabel
1 79 Au_bulk
2 7 N
3 6  C
4 1  H
5 79 Au
6 79 Au_surf
7 79 Au_tip
%endblock ChemicalSpeciesLabel
%block PAO.BasisSizes
C DZP
H DZP
N DZP
Au_surf DZP
%endblock PAO.BasisSizes
%block PAO.Basis
  Au_bulk  2
n=6  0  1
6.500
1.00
n=5  2  1
5.850
1.00
  Au  2
n=6  0  1
6.500
1.00
n=5  2  1
5.850
1.00
  Au_tip      2
 n=6   0   2 P   1
   3.0      3.0
   1.000      1.000
 n=5   2   2
   3.0     3.0
   1.000      1.000
%endblock PAO.Basis
LatticeConstant 1.000 Ang
%block LatticeVectors
   14.582     0.000   0.000        1
  0.000    8.866     0.000   1
  0.000   0.000    35.532  1
%endblock LatticeVectors
AtomicCoordinatesFormat Ang
%block AtomicCoordinatesAndAtomicSpecies
0.0 0.0 0.0 1 Au_bulk
0.0 2.955 0.0 1 Au_bulk
0.0 5.911 0.0 1 Au_bulk
2.956 0.0 0.0 1 Au_bulk
2.956 2.955 0.0 1 Au_bulk
2.956 5.911 0.0 1 Au_bulk
5.912 0.0 0.0 1 Au_bulk
5.912 2.955 0.0 1 Au_bulk
5.912 5.911 0.0 1 Au_bulk
8.67 0.0 0.0 1 Au_bulk
8.67 2.955 0.0 1 Au_bulk
8.67 5.911 0.0 1 Au_bulk
11.626 0.0 0.0 1 Au_bulk
11.626 2.955 0.0 1 Au_bulk
11.626 5.911 0.0 1 Au_bulk
1.478 1.478 2.09 1 Au_bulk
1.478 4.433 2.09 1 Au_bulk
1.478 7.389 2.09 1 Au_bulk
4.434 1.478 2.09 1 Au_bulk
4.434 4.433 2.09 1 Au_bulk
4.434 7.389 2.09 1 Au_bulk
7.192 1.478 2.09 1 Au_bulk
7.192 4.433 2.09 1 Au_bulk
7.192 7.389 2.09 1 Au_bulk
10.148 1.478 2.09 1 Au_bulk
10.148 4.433 2.09 1 Au_bulk
10.148 7.389 2.09 1 Au_bulk
13.104 1.478 2.09 1 Au_bulk
13.104 4.433 2.09 1 Au_bulk
13.104 7.389 2.09 1 Au_bulk
0.0 0.0 4.18 1 Au_bulk
0.0 2.955 4.18 1 Au_bulk
0.0 5.911 4.18 1 Au_bulk
2.956 0.0 4.18 1 Au_bulk
2.956 2.955 4.18 1 Au_bulk
2.956 5.911 4.18 1 Au_bulk
5.912 0.0 4.18 1 Au_bulk
5.912 2.955 4.18 1 Au_bulk
5.912 5.911 4.18 1 Au_bulk
8.67 0.0 4.18 1 Au_bulk
8.67 2.955 4.18 1 Au_bulk
8.67 5.911 4.18 1 Au_bulk
11.626 0.0 4.18 1 Au_bulk
11.626 2.955 4.18 1 Au_bulk
11.626 5.911 4.18 1 Au_bulk
1.478 1.478 6.27 1 Au_bulk
1.478 4.433 6.27 1 Au_bulk
1.478 7.389 6.27 1 Au_bulk
4.434 1.478 6.27 1 Au_bulk
4.434 4.433 6.27 1 Au_bulk
4.434 7.389 6.27 1 Au_bulk
7.192 1.478 6.27 1 Au_bulk
7.192 4.433 6.27 1 Au_bulk
7.192 7.389 6.27 1 Au_bulk
10.148 1.478 6.27 1 Au_bulk
10.148 4.433 6.27 1 Au_bulk
10.148 7.389 6.27 1 Au_bulk
13.104 1.478 6.27 1 Au_bulk
13.104 4.433 6.27 1 Au_bulk
13.104 7.389 6.27 1 Au_bulk
0.0 0.0 8.36 5 Au
0.0 2.955 8.36 5 Au
0.0 5.911 8.36 5 Au
2.956 0.0 8.36 5 Au
2.956 2.955 8.36 5 Au
2.956 5.911 8.36 5 Au
5.912 0.0 8.36 5 Au
5.912 2.955 8.36 5 Au
5.912 5.911 8.36 5 Au
8.67 0.0 8.36 5 Au
8.67 2.955 8.36 5 Au
8.67 5.911 8.36 5 Au
11.626 0.0 8.36 5 Au
11.626 2.955 8.36 5 Au
11.626 5.911 8.36 5 Au
1.478 1.478 10.45 6 Au_surf
1.478 4.433 10.45 6 Au_surf
1.478 7.389 10.45 6 Au_surf
4.434 1.478 10.45 6 Au_surf
4.434 4.433 10.45 6 Au_surf
4.434 7.389 10.45 6 Au_surf
7.192 1.478 10.45 6 Au_surf
7.192 4.433 10.45 6 Au_surf
7.192 7.389 10.45 6 Au_surf
10.148 1.478 10.45 6 Au_surf
10.148 4.433 10.45 6 Au_surf
10.148 7.389 10.45 6 Au_surf
13.104 1.478 10.45 6 Au_surf
13.104 4.433 10.45 6 Au_surf
13.104 7.389 10.45 6 Au_surf
4.8554 5.9119 12.0318 2 N
9.528 5.9137 12.034 2 N
7.192 5.934 12.04 2 N
4.0673339928 5.905999322 12.6877413689 4 H
10.3189054048 5.9087793826 12.6857470732 4 H
5.9989554222 5.9152564166 12.7926424112 3 C
8.3738707293 5.9179777707 12.7314572522 3 C
8.3227525762 5.9051536095 14.0804976421 2 N
5.9344285049 5.8981604865 14.1017499696 2 N
7.1039653577 5.8899410689 14.8287032191 3 C
7.2416021047 5.8657702092 16.1064667573 2 N
6.3118250323 5.8547577071 16.5396013062 4 H
9.1743570613 5.8876302392 14.6410177353 4 H
7.312 5.934 21.043 7 Au_tip
5.813 7.434 22.992 7 Au_tip
8.813 4.434 22.992 7 Au_tip
5.813 4.433 22.992 7 Au_tip
8.813 7.434 22.992 7 Au_tip
1.478 1.478 25.082 5 Au
1.478 4.433 25.082 5 Au
1.478 7.389 25.082 5 Au
4.434 1.478 25.082 5 Au
4.434 4.433 25.082 5 Au
4.434 7.389 25.082 5 Au
7.192 1.478 25.082 5 Au
7.192 4.433 25.082 5 Au
7.192 7.389 25.082 5 Au
10.148 1.478 25.082 5 Au
10.148 4.433 25.082 5 Au
10.148 7.389 25.082 5 Au
13.104 1.478 25.082 5 Au
13.104 4.433 25.082 5 Au
13.104 7.389 25.082 5 Au
0.0 0.0 27.172 1 Au_bulk
0.0 2.955 27.172 1 Au_bulk
0.0 5.911 27.172 1 Au_bulk
2.956 0.0 27.172 1 Au_bulk
2.956 2.955 27.172 1 Au_bulk
2.956 5.911 27.172 1 Au_bulk
5.912 0.0 27.172 1 Au_bulk
5.912 2.955 27.172 1 Au_bulk
5.912 5.911 27.172 1 Au_bulk
8.67 0.0 27.172 1 Au_bulk
8.67 2.955 27.172 1 Au_bulk
8.67 5.911 27.172 1 Au_bulk
11.626 0.0 27.172 1 Au_bulk
11.626 2.955 27.172 1 Au_bulk
11.626 5.911 27.172 1 Au_bulk
1.478 1.478 29.262 1 Au_bulk
1.478 4.433 29.262 1 Au_bulk
1.478 7.389 29.262 1 Au_bulk
4.434 1.478 29.262 1 Au_bulk
4.434 4.433 29.262 1 Au_bulk
4.434 7.389 29.262 1 Au_bulk
7.192 1.478 29.262 1 Au_bulk
7.192 4.433 29.262 1 Au_bulk
7.192 7.389 29.262 1 Au_bulk
10.148 1.478 29.262 1 Au_bulk
10.148 4.433 29.262 1 Au_bulk
10.148 7.389 29.262 1 Au_bulk
13.104 1.478 29.262 1 Au_bulk
13.104 4.433 29.262 1 Au_bulk
13.104 7.389 29.262 1 Au_bulk
0.0 0.0 31.352 1 Au_bulk
0.0 2.955 31.352 1 Au_bulk
0.0 5.911 31.352 1 Au_bulk
2.956 0.0 31.352 1 Au_bulk
2.956 2.955 31.352 1 Au_bulk
2.956 5.911 31.352 1 Au_bulk
5.912 0.0 31.352 1 Au_bulk
5.912 2.955 31.352 1 Au_bulk
5.912 5.911 31.352 1 Au_bulk
8.67 0.0 31.352 1 Au_bulk
8.67 2.955 31.352 1 Au_bulk
8.67 5.911 31.352 1 Au_bulk
11.626 0.0 31.352 1 Au_bulk
11.626 2.955 31.352 1 Au_bulk
11.626 5.911 31.352 1 Au_bulk
1.478 1.478 33.442 1 Au_bulk
1.478 4.433 33.442 1 Au_bulk
1.478 7.389 33.442 1 Au_bulk
4.434 1.478 33.442 1 Au_bulk
4.434 4.433 33.442 1 Au_bulk
4.434 7.389 33.442 1 Au_bulk
7.192 1.478 33.442 1 Au_bulk
7.192 4.433 33.442 1 Au_bulk
7.192 7.389 33.442 1 Au_bulk
10.148 1.478 33.442 1 Au_bulk
10.148 4.433 33.442 1 Au_bulk
10.148 7.389 33.442 1 Au_bulk
13.104 1.478 33.442 1 Au_bulk
13.104 4.433 33.442 1 Au_bulk
13.104 7.389 33.442 1 Au_bulk
%endblock AtomicCoordinatesAndAtomicSpecies 	
%block kgrid_Monkhorst_Pack
  2   0   0     0.0
  0   4   0     0.0
  0   0   1     0.0
%endblock kgrid_Monkhorst_Pack
xc.functional		LDA		# 'LDA', 'GGA'
xc.authors 	 		CA		# 'CA'='PZ', 'PW92', 'PBE'
SpinPolarized			F		# 'T', 'F'		
#FixSpin           F
#TotalSpin        0.0
NonCollinearSpin		F		# 'T', 'F'
MeshCutoff 	 		    200 Ry		# Equivalent plane wave cutoff for the grid
MaxSCFIterations		500
DM.MixingWeight			0.1
DM.NumberPulay			4	# Pulay convergency accelerator
DM.MixSCF1			    T
MixHamiltonian      T
DM.PulayOnFile			F		# Store in memory ('F') or in files ('T')
#DM.NumberKick         30
#DM.KickMixingWeight   0.1
DM.Tolerance 		1.0E-4
NeglNonOverlapInt		F		# 'F'=do not neglect
SolutionMethod			diagon
ElectronicTemperature		300 K		# Default value
DM.UseSaveDM 			T
#MD.UseSaveXV			T
#MD.UseSaveCG			T
WriteForces      T
WriteCoorXmol			T		# Write Atoms coordinates
SaveElectrostaticPotential      T
#SaveHS				T		# Save the Hamiltonian and Overlap matrices
SaveRho				T		# Save the valence pseudocharge density
#SaveDeltaRho			T
#WriteDenchar			T		# Write Denchar output
WriteMullikenPop		0 #write mulliken population of aromic and orbital charges
#-----
#smeagol
#-----
# Perform a transport calculation
EMTransport              T
# Set number of energy points for integrals
NEnergReal               64
# Set bias range
VInitial             -1 eV
VFinal                1 eV
NIVPoints                4
# General variables
Delta                    1e-4
EnergLowestBound    -100.0 eV
# Print transmission coefficient
TrCoefficients           F
InitTransmRange      -10.0 eV
FinalTransmRange      10.0 eV
NTransmPoints            800
TRC.EMDOS                T
TRC.LeadsDOS             T
# Matching of Hartree potential with the leads
HartreeLeadsBottom  -15.36721897 eV
%block SaveBiasSteps
 0 1 2 3
%endblock SaveBiasSteps
************************** End of input data file *****************************

reinit: -----------------------------------------------------------------------
reinit: System Name: IV                                                         
reinit: -----------------------------------------------------------------------
reinit: System Label: IV                  
reinit: -----------------------------------------------------------------------

initatom: Reading input for the pseudopotentials and atomic orbitals ----------
 Species number:            1  Label: Au_bulk Atomic number:          79
 Species number:            2  Label: N Atomic number:           7
 Species number:            3  Label: C Atomic number:           6
 Species number:            4  Label: H Atomic number:           1
 Species number:            5  Label: Au Atomic number:          79
 Species number:            6  Label: Au_surf Atomic number:          79
 Species number:            7  Label: Au_tip Atomic number:          79
Ground state valence configuration:   6s01  5d10
Reading pseudopotential information in formatted form from Au_bulk.psf
Ground state valence configuration:   2s02  2p03
Reading pseudopotential information in formatted form from N.psf
Ground state valence configuration:   2s02  2p02
Reading pseudopotential information in formatted form from C.psf
Ground state valence configuration:   1s01
Reading pseudopotential information in formatted form from H.psf
Ground state valence configuration:   6s01  5d10
Reading pseudopotential information in formatted form from Au.psf
Ground state valence configuration:   6s01  5d10
Reading pseudopotential information in formatted form from Au_surf.psf
Ground state valence configuration:   6s01  5d10
Reading pseudopotential information in formatted form from Au_tip.psf
resizes: Read basis size for species C = dzp                 
resizes: Read basis size for species H = dzp                 
resizes: Read basis size for species N = dzp                 
resizes: Read basis size for species Au_surf = dzp                 
For Au_bulk, standard SIESTA heuristics set lmxkb to 3
 (one more than the basis l, including polarization orbitals).
Use PS.lmax or PS.KBprojectors blocks to override.
 Warning: Empty PAO shell. l =           1
 Will have a KB projector anyway...
For N, standard SIESTA heuristics set lmxkb to 3
 (one more than the basis l, including polarization orbitals).
Use PS.lmax or PS.KBprojectors blocks to override.
For C, standard SIESTA heuristics set lmxkb to 3
 (one more than the basis l, including polarization orbitals).
Use PS.lmax or PS.KBprojectors blocks to override.
For H, standard SIESTA heuristics set lmxkb to 2
 (one more than the basis l, including polarization orbitals).
Use PS.lmax or PS.KBprojectors blocks to override.
For Au, standard SIESTA heuristics set lmxkb to 3
 (one more than the basis l, including polarization orbitals).
Use PS.lmax or PS.KBprojectors blocks to override.
 Warning: Empty PAO shell. l =           1
 Will have a KB projector anyway...
For Au_surf, standard SIESTA heuristics set lmxkb to 3
 (one more than the basis l, including polarization orbitals).
Use PS.lmax or PS.KBprojectors blocks to override.
For Au_tip, standard SIESTA heuristics set lmxkb to 3
 (one more than the basis l, including polarization orbitals).
Use PS.lmax or PS.KBprojectors blocks to override.
 Warning: Empty PAO shell. l =           1
 Will have a KB projector anyway...

<basis_specs>
===============================================================================
Au_bulk              Z=  79    Mass=  196.97        Charge=  0.0000    
Lmxo=2 Lmxkb=3     BasisType=split      Semic=F
L=0  Nsemic=0  Cnfigmx=6
          n=1  nzeta=1  polorb=0
               vcte:    0.0000    
               rinn:    0.0000    
                rcs:    6.5000    
            lambdas:    1.0000    
L=1  Nsemic=0  Cnfigmx=6
L=2  Nsemic=0  Cnfigmx=5
          n=1  nzeta=1  polorb=0
               vcte:    0.0000    
               rinn:    0.0000    
                rcs:    5.8500    
            lambdas:    1.0000    
-------------------------------------------------------------------------------
L=0  Nkbl=1  erefs: 0.17977+309
L=1  Nkbl=1  erefs: 0.17977+309
L=2  Nkbl=1  erefs: 0.17977+309
L=3  Nkbl=1  erefs: 0.17977+309
===============================================================================
</basis_specs>

atom: Called for Au  (Z =  79)

read_vps: Pseudopotential generation method:
read_vps: ATM3      Troullier-Martins                       

read_vps: Pseudopotential generated from a relativistic atomic calculation
read_vps: There are spin-orbit pseudopotentials available

read_vps: Valence configuration (pseudopotential and basis set generation):
6s( 1.00) rc: 2.18
6p( 0.00) rc: 2.47
5d(10.00) rc: 1.79
5f( 0.00) rc: 2.00
Total valence charge:   11.00000

read_vps: Pseudopotential includes a core correction:
read_vps: Pseudo-core for xc-correction
comcore: Pseudo-core radius Rcore=  4.027091

xc_check: Exchange-correlation functional:
xc_check: Ceperley-Alder
V l=0 = -2*Zval/r beyond r=  2.9833
V l=1 = -2*Zval/r beyond r=  2.9833
V l=2 = -2*Zval/r beyond r=  2.9833
V l=3 = -2*Zval/r beyond r=  2.9833
All V_l potentials equal beyond r=  2.4425
This should be close to max(r_c) in ps generation
All pots = -2*Zval/r beyond r=  2.9833

VLOCAL1: 99.0% of the norm of Vloc inside      7.276 Ry
VLOCAL1: 99.9% of the norm of Vloc inside     16.582 Ry
atom: Maximum radius for 4*pi*r*r*local-pseudopot. charge    2.94627
atom: Maximum radius for r*vlocal+2*Zval:    2.60007
GHOST: No ghost state for L =  0
GHOST: No ghost state for L =  1
GHOST: No ghost state for L =  2
GHOST: No ghost state for L =  3

KBgen: Kleinman-Bylander projectors: 
   l= 0   rc=  3.175745   el= -0.445638   Ekb=  5.072790   kbcos=  0.276607
   l= 1   rc=  3.256140   el= -0.066324   Ekb=  2.703235   kbcos=  0.227171
   l= 2   rc=  3.020861   el= -0.526103   Ekb= -4.704026   kbcos= -0.643795
   l= 3   rc=  3.466145   el=  0.003438   Ekb= -2.516122   kbcos= -0.010529

KBgen: Total number of  Kleinman-Bylander projectors:   16
atom: -------------------------------------------------------------------------

atom: SANKEY-TYPE ORBITALS:

SPLIT: Orbitals with angular momentum L= 0

SPLIT: Basis orbitals for state 6s

   izeta = 1
                 lambda =    1.000000
                     rc =    6.557093
                 energy =   -0.435455
                kinetic =    0.389259
    potential(screened) =   -0.824714
       potential(ionic) =   -8.467175

SPLIT: Orbitals with angular momentum L= 2

SPLIT: Basis orbitals for state 5d

   izeta = 1
                 lambda =    1.000000
                     rc =    5.933100
                 energy =   -0.524775
                kinetic =    4.913203
    potential(screened) =   -5.437978
       potential(ionic) =  -15.883506
atom: Total number of Sankey-type orbitals:  6

atm_pop: Valence configuration(local Pseudopot. screening):
 6s( 1.00)                                                            
 6p( 0.00)                                                            
 5d(10.00)                                                            
Vna: chval, zval:   11.00000  11.00000

Vna:  Cut-off radius for the neutral-atom potential:   6.557093

atom: _________________________________________________________________________

<basis_specs>
===============================================================================
N                    Z=   7    Mass=  14.010        Charge=  0.0000    
Lmxo=1 Lmxkb=3     BasisType=split      Semic=F
L=0  Nsemic=0  Cnfigmx=2
          n=1  nzeta=2  polorb=0
               vcte:    0.0000    
               rinn:    0.0000    
                rcs:    0.0000      0.0000    
            lambdas:    1.0000      1.0000    
L=1  Nsemic=0  Cnfigmx=2
          n=1  nzeta=2  polorb=1
               vcte:    0.0000    
               rinn:    0.0000    
                rcs:    0.0000      0.0000    
            lambdas:    1.0000      1.0000    
-------------------------------------------------------------------------------
L=0  Nkbl=1  erefs: 0.17977+309
L=1  Nkbl=1  erefs: 0.17977+309
L=2  Nkbl=1  erefs: 0.17977+309
L=3  Nkbl=1  erefs: 0.17977+309
===============================================================================
</basis_specs>

atom: Called for N   (Z =   7)

read_vps: Pseudopotential generation method:
read_vps: ATM 3.2.2 Troullier-Martins                       

read_vps: Pseudopotential generated from a relativistic atomic calculation
read_vps: There are spin-orbit pseudopotentials available

read_vps: Valence configuration (pseudopotential and basis set generation):
2s( 2.00) rc: 1.14
2p( 3.00) rc: 1.14
3d( 0.00) rc: 1.14
4f( 0.00) rc: 1.14
Total valence charge:    5.00000

xc_check: Exchange-correlation functional:
xc_check: Ceperley-Alder
xc_check: WARNING: Pseudopotential generated with
xc_check: WARNING: GGA Perdew, Burke & Ernzerhof 1996 functional
V l=0 = -2*Zval/r beyond r=  1.2729
V l=1 = -2*Zval/r beyond r=  1.2889
V l=2 = -2*Zval/r beyond r=  1.2889
V l=3 = -2*Zval/r beyond r=  1.2889
All V_l potentials equal beyond r=  1.1233
This should be close to max(r_c) in ps generation
All pots = -2*Zval/r beyond r=  1.2889

VLOCAL1: 99.0% of the norm of Vloc inside     34.401 Ry
VLOCAL1: 99.9% of the norm of Vloc inside     78.401 Ry
atom: Maximum radius for 4*pi*r*r*local-pseudopot. charge    1.35504
atom: Maximum radius for r*vlocal+2*Zval:    1.18092
GHOST: No ghost state for L =  0
GHOST: No ghost state for L =  1
GHOST: No ghost state for L =  2
GHOST: No ghost state for L =  3

KBgen: Kleinman-Bylander projectors: 
   l= 0   rc=  1.460600   el= -1.344997   Ekb=  9.638631   kbcos=  0.297171
   l= 1   rc=  1.478977   el= -0.504850   Ekb= -6.415575   kbcos= -0.317314
   l= 2   rc=  1.634559   el=  0.002346   Ekb= -1.678090   kbcos= -0.003674
   l= 3   rc=  2.072839   el=  0.003449   Ekb= -0.793018   kbcos= -0.000316

KBgen: Total number of  Kleinman-Bylander projectors:   16
atom: -------------------------------------------------------------------------

atom: SANKEY-TYPE ORBITALS:
atom: Selected multiple-zeta basis: split     

SPLIT: Orbitals with angular momentum L= 0

SPLIT: Basis orbitals for state 2s

SPLIT: PAO cut-off radius determinated from an
SPLIT: energy shift=  0.020000 Ry

   izeta = 1
                 lambda =    1.000000
                     rc =    3.683980
                 energy =   -1.326370
                kinetic =    1.254647
    potential(screened) =   -2.581017
       potential(ionic) =   -8.161681

   izeta = 2
                 rmatch =    2.905100
              splitnorm =    0.150000
                 energy =   -1.124590
                kinetic =    1.923672
    potential(screened) =   -3.048262
       potential(ionic) =   -9.027318

SPLIT: Orbitals with angular momentum L= 1

SPLIT: Basis orbitals for state 2p

SPLIT: PAO cut-off radius determinated from an
SPLIT: energy shift=  0.020000 Ry

   izeta = 1
                 lambda =    1.000000
                     rc =    4.388595
                 energy =   -0.485851
                kinetic =    3.640453
    potential(screened) =   -4.126303
       potential(ionic) =   -9.541041

   izeta = 2
                 rmatch =    2.978652
              splitnorm =    0.150000
                 energy =   -0.267686
                kinetic =    5.503850
    potential(screened) =   -5.771536
       potential(ionic) =  -11.823923

POLgen: Perturbative polarization orbital with L=  2

POLgen: Polarization orbital for state 2p

   izeta = 1
                     rc =    4.388595
                 energy =    1.749403
                kinetic =    3.466240
    potential(screened) =   -1.716837
       potential(ionic) =   -6.139475
atom: Total number of Sankey-type orbitals: 13

atm_pop: Valence configuration(local Pseudopot. screening):
 2s( 2.00)                                                            
 2p( 3.00)                                                            
Vna: chval, zval:    5.00000   5.00000

Vna:  Cut-off radius for the neutral-atom potential:   4.388595

atom: _________________________________________________________________________

<basis_specs>
===============================================================================
C                    Z=   6    Mass=  12.010        Charge=  0.0000    
Lmxo=1 Lmxkb=3     BasisType=split      Semic=F
L=0  Nsemic=0  Cnfigmx=2
          n=1  nzeta=2  polorb=0
               vcte:    0.0000    
               rinn:    0.0000    
                rcs:    0.0000      0.0000    
            lambdas:    1.0000      1.0000    
L=1  Nsemic=0  Cnfigmx=2
          n=1  nzeta=2  polorb=1
               vcte:    0.0000    
               rinn:    0.0000    
                rcs:    0.0000      0.0000    
            lambdas:    1.0000      1.0000    
-------------------------------------------------------------------------------
L=0  Nkbl=1  erefs: 0.17977+309
L=1  Nkbl=1  erefs: 0.17977+309
L=2  Nkbl=1  erefs: 0.17977+309
L=3  Nkbl=1  erefs: 0.17977+309
===============================================================================
</basis_specs>

atom: Called for C   (Z =   6)

read_vps: Pseudopotential generation method:
read_vps: ATM3      Troullier-Martins                       

read_vps: Valence configuration (pseudopotential and basis set generation):
2s( 2.00) rc: 1.25
2p( 2.00) rc: 1.25
3d( 0.00) rc: 1.25
4f( 0.00) rc: 1.25
read_vps: Spin-orbit interaction is not included in this calculation
Total valence charge:    4.00000

xc_check: Exchange-correlation functional:
xc_check: Ceperley-Alder
V l=0 = -2*Zval/r beyond r=  1.3951
V l=1 = -2*Zval/r beyond r=  1.3777
V l=2 = -2*Zval/r beyond r=  1.3777
V l=3 = -2*Zval/r beyond r=  1.3777
All V_l potentials equal beyond r=  1.2311
This should be close to max(r_c) in ps generation
All pots = -2*Zval/r beyond r=  1.3951

VLOCAL1: 99.0% of the norm of Vloc inside     28.641 Ry
VLOCAL1: 99.9% of the norm of Vloc inside     65.273 Ry
atom: Maximum radius for 4*pi*r*r*local-pseudopot. charge    1.48507
atom: Maximum radius for r*vlocal+2*Zval:    1.27815
GHOST: No ghost state for L =  0
GHOST: No ghost state for L =  1
GHOST: No ghost state for L =  2
GHOST: No ghost state for L =  3

KBgen: Kleinman-Bylander projectors: 
   l= 0   rc=  1.600766   el= -1.001946   Ekb=  7.816946   kbcos=  0.279978
   l= 1   rc=  1.620907   el= -0.398597   Ekb= -4.829535   kbcos= -0.287433
   l= 2   rc=  1.836783   el=  0.002326   Ekb= -1.327964   kbcos= -0.005365
   l= 3   rc=  1.979871   el=  0.003420   Ekb= -0.522285   kbcos= -0.000569

KBgen: Total number of  Kleinman-Bylander projectors:   16
atom: -------------------------------------------------------------------------

atom: SANKEY-TYPE ORBITALS:
atom: Selected multiple-zeta basis: split     

SPLIT: Orbitals with angular momentum L= 0

SPLIT: Basis orbitals for state 2s

SPLIT: PAO cut-off radius determinated from an
SPLIT: energy shift=  0.020000 Ry

   izeta = 1
                 lambda =    1.000000
                     rc =    4.191849
                 energy =   -0.983900
                kinetic =    0.918801
    potential(screened) =   -1.902702
       potential(ionic) =   -5.506899

   izeta = 2
                 rmatch =    3.431921
              splitnorm =    0.150000
                 energy =   -0.849361
                kinetic =    1.377262
    potential(screened) =   -2.226623
       potential(ionic) =   -6.060758

SPLIT: Orbitals with angular momentum L= 1

SPLIT: Basis orbitals for state 2p

SPLIT: PAO cut-off radius determinated from an
SPLIT: energy shift=  0.020000 Ry

   izeta = 1
                 lambda =    1.000000
                     rc =    4.870301
                 energy =   -0.379088
                kinetic =    2.614064
    potential(screened) =   -2.993152
       potential(ionic) =   -6.506293

   izeta = 2
                 rmatch =    3.475094
              splitnorm =    0.150000
                 energy =   -0.215528
                kinetic =    3.940460
    potential(screened) =   -4.155988
       potential(ionic) =   -8.054000

POLgen: Perturbative polarization orbital with L=  2

POLgen: Polarization orbital for state 2p

   izeta = 1
                     rc =    4.870301
                 energy =    1.279486
                kinetic =    2.608016
    potential(screened) =   -1.328529
       potential(ionic) =   -4.267494
atom: Total number of Sankey-type orbitals: 13

atm_pop: Valence configuration(local Pseudopot. screening):
 2s( 2.00)                                                            
 2p( 2.00)                                                            
Vna: chval, zval:    4.00000   4.00000

Vna:  Cut-off radius for the neutral-atom potential:   4.870301

atom: _________________________________________________________________________

<basis_specs>
===============================================================================
H                    Z=   1    Mass=  1.0100        Charge=  0.0000    
Lmxo=0 Lmxkb=2     BasisType=split      Semic=F
L=0  Nsemic=0  Cnfigmx=1
          n=1  nzeta=2  polorb=1
               vcte:    0.0000    
               rinn:    0.0000    
                rcs:    0.0000      0.0000    
            lambdas:    1.0000      1.0000    
-------------------------------------------------------------------------------
L=0  Nkbl=1  erefs: 0.17977+309
L=1  Nkbl=1  erefs: 0.17977+309
L=2  Nkbl=1  erefs: 0.17977+309
===============================================================================
</basis_specs>

atom: Called for H   (Z =   1)

read_vps: Pseudopotential generation method:
read_vps: ATM3      Troullier-Martins                       

read_vps: Valence configuration (pseudopotential and basis set generation):
1s( 1.00) rc: 1.25
2p( 0.00) rc: 1.25
3d( 0.00) rc: 1.25
read_vps: Spin-orbit interaction is not included in this calculation
Total valence charge:    1.00000

xc_check: Exchange-correlation functional:
xc_check: Ceperley-Alder
V l=0 = -2*Zval/r beyond r=  1.2343
V l=1 = -2*Zval/r beyond r=  1.2189
V l=2 = -2*Zval/r beyond r=  1.2189
All V_l potentials equal beyond r=  1.2343
This should be close to max(r_c) in ps generation
All pots = -2*Zval/r beyond r=  1.2343

VLOCAL1: 99.0% of the norm of Vloc inside     28.493 Ry
VLOCAL1: 99.9% of the norm of Vloc inside     64.935 Ry
atom: Maximum radius for 4*pi*r*r*local-pseudopot. charge    1.45251
atom: Maximum radius for r*vlocal+2*Zval:    1.21892
GHOST: No ghost state for L =  0
GHOST: No ghost state for L =  1
GHOST: No ghost state for L =  2

KBgen: Kleinman-Bylander projectors: 
   l= 0   rc=  1.364359   el= -0.467325   Ekb= -2.005361   kbcos= -0.336422
   l= 1   rc=  1.434438   el=  0.001430   Ekb= -0.501708   kbcos= -0.021697
   l= 2   rc=  1.470814   el=  0.002365   Ekb= -0.190555   kbcos= -0.002281

KBgen: Total number of  Kleinman-Bylander projectors:    9
atom: -------------------------------------------------------------------------

atom: SANKEY-TYPE ORBITALS:
atom: Selected multiple-zeta basis: split     

SPLIT: Orbitals with angular momentum L= 0

SPLIT: Basis orbitals for state 1s

SPLIT: PAO cut-off radius determinated from an
SPLIT: energy shift=  0.020000 Ry

   izeta = 1
                 lambda =    1.000000
                     rc =    4.828263
                 energy =   -0.449375
                kinetic =    0.929372
    potential(screened) =   -1.378747
       potential(ionic) =   -1.915047

   izeta = 2
                 rmatch =    3.854947
              splitnorm =    0.150000
                 energy =   -0.335649
                kinetic =    1.505971
    potential(screened) =   -1.841620
       potential(ionic) =   -2.413776

POLgen: Perturbative polarization orbital with L=  1

POLgen: Polarization orbital for state 1s

   izeta = 1
                     rc =    4.828263
                 energy =    0.706972
                kinetic =    1.396397
    potential(screened) =   -0.689424
       potential(ionic) =   -1.169792
atom: Total number of Sankey-type orbitals:  5

atm_pop: Valence configuration(local Pseudopot. screening):
 1s( 1.00)                                                            
Vna: chval, zval:    1.00000   1.00000

Vna:  Cut-off radius for the neutral-atom potential:   4.828263

atom: _________________________________________________________________________

<basis_specs>
===============================================================================
Au                   Z=  79    Mass=  196.97        Charge=  0.0000    
Lmxo=2 Lmxkb=3     BasisType=split      Semic=F
L=0  Nsemic=0  Cnfigmx=6
          n=1  nzeta=1  polorb=0
               vcte:    0.0000    
               rinn:    0.0000    
                rcs:    6.5000    
            lambdas:    1.0000    
L=1  Nsemic=0  Cnfigmx=6
L=2  Nsemic=0  Cnfigmx=5
          n=1  nzeta=1  polorb=0
               vcte:    0.0000    
               rinn:    0.0000    
                rcs:    5.8500    
            lambdas:    1.0000    
-------------------------------------------------------------------------------
L=0  Nkbl=1  erefs: 0.17977+309
L=1  Nkbl=1  erefs: 0.17977+309
L=2  Nkbl=1  erefs: 0.17977+309
L=3  Nkbl=1  erefs: 0.17977+309
===============================================================================
</basis_specs>

atom: Called for Au  (Z =  79)

read_vps: Pseudopotential generation method:
read_vps: ATM3      Troullier-Martins                       

read_vps: Pseudopotential generated from a relativistic atomic calculation
read_vps: There are spin-orbit pseudopotentials available

read_vps: Valence configuration (pseudopotential and basis set generation):
6s( 1.00) rc: 2.18
6p( 0.00) rc: 2.47
5d(10.00) rc: 1.79
5f( 0.00) rc: 2.00
Total valence charge:   11.00000

read_vps: Pseudopotential includes a core correction:
read_vps: Pseudo-core for xc-correction
comcore: Pseudo-core radius Rcore=  4.027091

xc_check: Exchange-correlation functional:
xc_check: Ceperley-Alder
V l=0 = -2*Zval/r beyond r=  2.9833
V l=1 = -2*Zval/r beyond r=  2.9833
V l=2 = -2*Zval/r beyond r=  2.9833
V l=3 = -2*Zval/r beyond r=  2.9833
All V_l potentials equal beyond r=  2.4425
This should be close to max(r_c) in ps generation
All pots = -2*Zval/r beyond r=  2.9833

VLOCAL1: 99.0% of the norm of Vloc inside      7.276 Ry
VLOCAL1: 99.9% of the norm of Vloc inside     16.582 Ry
atom: Maximum radius for 4*pi*r*r*local-pseudopot. charge    2.94627
atom: Maximum radius for r*vlocal+2*Zval:    2.60007
GHOST: No ghost state for L =  0
GHOST: No ghost state for L =  1
GHOST: No ghost state for L =  2
GHOST: No ghost state for L =  3

KBgen: Kleinman-Bylander projectors: 
   l= 0   rc=  3.175745   el= -0.445638   Ekb=  5.072790   kbcos=  0.276607
   l= 1   rc=  3.256140   el= -0.066324   Ekb=  2.703235   kbcos=  0.227171
   l= 2   rc=  3.020861   el= -0.526103   Ekb= -4.704026   kbcos= -0.643795
   l= 3   rc=  3.466145   el=  0.003438   Ekb= -2.516122   kbcos= -0.010529

KBgen: Total number of  Kleinman-Bylander projectors:   16
atom: -------------------------------------------------------------------------

atom: SANKEY-TYPE ORBITALS:

SPLIT: Orbitals with angular momentum L= 0

SPLIT: Basis orbitals for state 6s

   izeta = 1
                 lambda =    1.000000
                     rc =    6.557093
                 energy =   -0.435455
                kinetic =    0.389259
    potential(screened) =   -0.824714
       potential(ionic) =   -8.467175

SPLIT: Orbitals with angular momentum L= 2

SPLIT: Basis orbitals for state 5d

   izeta = 1
                 lambda =    1.000000
                     rc =    5.933100
                 energy =   -0.524775
                kinetic =    4.913203
    potential(screened) =   -5.437978
       potential(ionic) =  -15.883506
atom: Total number of Sankey-type orbitals:  6

atm_pop: Valence configuration(local Pseudopot. screening):
 6s( 1.00)                                                            
 6p( 0.00)                                                            
 5d(10.00)                                                            
Vna: chval, zval:   11.00000  11.00000

Vna:  Cut-off radius for the neutral-atom potential:   6.557093

atom: _________________________________________________________________________

<basis_specs>
===============================================================================
Au_surf              Z=  79    Mass=  196.97        Charge=  0.0000    
Lmxo=2 Lmxkb=3     BasisType=split      Semic=F
L=0  Nsemic=0  Cnfigmx=6
          n=1  nzeta=2  polorb=1
               vcte:    0.0000    
               rinn:    0.0000    
                rcs:    0.0000      0.0000    
            lambdas:    1.0000      1.0000    
L=1  Nsemic=0  Cnfigmx=6
L=2  Nsemic=0  Cnfigmx=5
          n=1  nzeta=2  polorb=0
               vcte:    0.0000    
               rinn:    0.0000    
                rcs:    0.0000      0.0000    
            lambdas:    1.0000      1.0000    
-------------------------------------------------------------------------------
L=0  Nkbl=1  erefs: 0.17977+309
L=1  Nkbl=1  erefs: 0.17977+309
L=2  Nkbl=1  erefs: 0.17977+309
L=3  Nkbl=1  erefs: 0.17977+309
===============================================================================
</basis_specs>

atom: Called for Au  (Z =  79)

read_vps: Pseudopotential generation method:
read_vps: ATM3      Troullier-Martins                       

read_vps: Pseudopotential generated from a relativistic atomic calculation
read_vps: There are spin-orbit pseudopotentials available

read_vps: Valence configuration (pseudopotential and basis set generation):
6s( 1.00) rc: 2.18
6p( 0.00) rc: 2.47
5d(10.00) rc: 1.79
5f( 0.00) rc: 2.00
Total valence charge:   11.00000

read_vps: Pseudopotential includes a core correction:
read_vps: Pseudo-core for xc-correction
comcore: Pseudo-core radius Rcore=  4.027091

xc_check: Exchange-correlation functional:
xc_check: Ceperley-Alder
V l=0 = -2*Zval/r beyond r=  2.9833
V l=1 = -2*Zval/r beyond r=  2.9833
V l=2 = -2*Zval/r beyond r=  2.9833
V l=3 = -2*Zval/r beyond r=  2.9833
All V_l potentials equal beyond r=  2.4425
This should be close to max(r_c) in ps generation
All pots = -2*Zval/r beyond r=  2.9833

VLOCAL1: 99.0% of the norm of Vloc inside      7.276 Ry
VLOCAL1: 99.9% of the norm of Vloc inside     16.582 Ry
atom: Maximum radius for 4*pi*r*r*local-pseudopot. charge    2.94627
atom: Maximum radius for r*vlocal+2*Zval:    2.60007
GHOST: No ghost state for L =  0
GHOST: No ghost state for L =  1
GHOST: No ghost state for L =  2
GHOST: No ghost state for L =  3

KBgen: Kleinman-Bylander projectors: 
   l= 0   rc=  3.175745   el= -0.445638   Ekb=  5.072790   kbcos=  0.276607
   l= 1   rc=  3.256140   el= -0.066324   Ekb=  2.703235   kbcos=  0.227171
   l= 2   rc=  3.020861   el= -0.526103   Ekb= -4.704026   kbcos= -0.643795
   l= 3   rc=  3.466145   el=  0.003438   Ekb= -2.516122   kbcos= -0.010529

KBgen: Total number of  Kleinman-Bylander projectors:   16
atom: -------------------------------------------------------------------------

atom: SANKEY-TYPE ORBITALS:
atom: Selected multiple-zeta basis: split     

SPLIT: Orbitals with angular momentum L= 0

SPLIT: Basis orbitals for state 6s

SPLIT: PAO cut-off radius determinated from an
SPLIT: energy shift=  0.020000 Ry

   izeta = 1
                 lambda =    1.000000
                     rc =    6.083298
                 energy =   -0.427281
                kinetic =    0.413324
    potential(screened) =   -0.840605
       potential(ionic) =   -8.569369

   izeta = 2
                 rmatch =    5.643738
              splitnorm =    0.150000
                 energy =   -0.356838
                kinetic =    0.642757
    potential(screened) =   -0.999595
       potential(ionic) =   -9.161462

SPLIT: Orbitals with angular momentum L= 2

SPLIT: Basis orbitals for state 5d

SPLIT: PAO cut-off radius determinated from an
SPLIT: energy shift=  0.020000 Ry

   izeta = 1
                 lambda =    1.000000
                     rc =    4.286818
                 energy =   -0.507846
                kinetic =    5.140097
    potential(screened) =   -5.647943
       potential(ionic) =  -16.260097

   izeta = 2
                 rmatch =    2.802581
              splitnorm =    0.150000
                 energy =   -0.214101
                kinetic =    7.126928
    potential(screened) =   -7.341029
       potential(ionic) =  -18.741832

POLgen: Perturbative polarization orbital with L=  1

POLgen: Polarization orbital for state 6s

   izeta = 1
                     rc =    6.083298
                 energy =   -0.072727
                kinetic =    0.732634
    potential(screened) =   -0.805360
       potential(ionic) =   -8.142092
atom: Total number of Sankey-type orbitals: 15

atm_pop: Valence configuration(local Pseudopot. screening):
 6s( 1.00)                                                            
 6p( 0.00)                                                            
 5d(10.00)                                                            
Vna: chval, zval:   11.00000  11.00000

Vna:  Cut-off radius for the neutral-atom potential:   6.083298

atom: _________________________________________________________________________

<basis_specs>
===============================================================================
Au_tip               Z=  79    Mass=  196.97        Charge=  0.0000    
Lmxo=2 Lmxkb=3     BasisType=split      Semic=F
L=0  Nsemic=0  Cnfigmx=6
          n=1  nzeta=2  polorb=1
               vcte:    0.0000    
               rinn:    0.0000    
                rcs:    3.0000      3.0000    
            lambdas:    1.0000      1.0000    
L=1  Nsemic=0  Cnfigmx=6
L=2  Nsemic=0  Cnfigmx=5
          n=1  nzeta=2  polorb=0
               vcte:    0.0000    
               rinn:    0.0000    
                rcs:    3.0000      3.0000    
            lambdas:    1.0000      1.0000    
-------------------------------------------------------------------------------
L=0  Nkbl=1  erefs: 0.17977+309
L=1  Nkbl=1  erefs: 0.17977+309
L=2  Nkbl=1  erefs: 0.17977+309
L=3  Nkbl=1  erefs: 0.17977+309
===============================================================================
</basis_specs>

atom: Called for Au  (Z =  79)

read_vps: Pseudopotential generation method:
read_vps: ATM3      Troullier-Martins                       

read_vps: Pseudopotential generated from a relativistic atomic calculation
read_vps: There are spin-orbit pseudopotentials available

read_vps: Valence configuration (pseudopotential and basis set generation):
6s( 1.00) rc: 2.18
6p( 0.00) rc: 2.47
5d(10.00) rc: 1.79
5f( 0.00) rc: 2.00
Total valence charge:   11.00000

read_vps: Pseudopotential includes a core correction:
read_vps: Pseudo-core for xc-correction
comcore: Pseudo-core radius Rcore=  4.027091

xc_check: Exchange-correlation functional:
xc_check: Ceperley-Alder
V l=0 = -2*Zval/r beyond r=  2.9833
V l=1 = -2*Zval/r beyond r=  2.9833
V l=2 = -2*Zval/r beyond r=  2.9833
V l=3 = -2*Zval/r beyond r=  2.9833
All V_l potentials equal beyond r=  2.4425
This should be close to max(r_c) in ps generation
All pots = -2*Zval/r beyond r=  2.9833

VLOCAL1: 99.0% of the norm of Vloc inside      7.276 Ry
VLOCAL1: 99.9% of the norm of Vloc inside     16.582 Ry
atom: Maximum radius for 4*pi*r*r*local-pseudopot. charge    2.94627
atom: Maximum radius for r*vlocal+2*Zval:    2.60007
GHOST: No ghost state for L =  0
GHOST: No ghost state for L =  1
GHOST: No ghost state for L =  2
GHOST: No ghost state for L =  3

KBgen: Kleinman-Bylander projectors: 
   l= 0   rc=  3.175745   el= -0.445638   Ekb=  5.072790   kbcos=  0.276607
   l= 1   rc=  3.256140   el= -0.066324   Ekb=  2.703235   kbcos=  0.227171
   l= 2   rc=  3.020861   el= -0.526103   Ekb= -4.704026   kbcos= -0.643795
   l= 3   rc=  3.466145   el=  0.003438   Ekb= -2.516122   kbcos= -0.010529

KBgen: Total number of  Kleinman-Bylander projectors:   16
atom: -------------------------------------------------------------------------

atom: SANKEY-TYPE ORBITALS:
atom: Selected multiple-zeta basis: split     

SPLIT: Orbitals with angular momentum L= 0

SPLIT: Basis orbitals for state 6s

   izeta = 1
                 lambda =    1.000000
                     rc =    3.020861
                 energy =    0.541292
                kinetic =    1.508899
    potential(screened) =   -0.967607
       potential(ionic) =  -10.689730

SPLIT: WARNING: Split-orbital with zeta= 2 and zeta= 1 are identical for l= 0

   izeta = 2
                 rmatch =    3.020861
              splitnorm =   26.465804
                 energy =    0.844585
                kinetic =    1.175421
    potential(screened) =   -0.330836
       potential(ionic) =  -10.490544

SPLIT: Orbitals with angular momentum L= 2

SPLIT: Basis orbitals for state 5d

   izeta = 1
                 lambda =    1.000000
                     rc =    3.020861
                 energy =   -0.371910
                kinetic =    6.060102
    potential(screened) =   -6.432012
       potential(ionic) =  -17.488088

SPLIT: WARNING: Split-orbital with zeta= 2 and zeta= 1 are identical for l= 2

   izeta = 2
                 rmatch =    3.020861
              splitnorm =    0.665280
                 energy =    0.300378
                kinetic =    4.382830
    potential(screened) =   -4.082452
       potential(ionic) =  -14.085262

POLgen: Perturbative polarization orbital with L=  1

POLgen: Polarization orbital for state 6s

   izeta = 1
                     rc =    3.020861
                 energy =    1.240527
                kinetic =    2.338193
    potential(screened) =   -1.097666
       potential(ionic) =  -10.668450
atom: Total number of Sankey-type orbitals: 15

atm_pop: Valence configuration(local Pseudopot. screening):
 6s( 1.00)                                                            
 6p( 0.00)                                                            
 5d(10.00)                                                            
Vna: chval, zval:   11.00000  11.00000

Vna:  Cut-off radius for the neutral-atom potential:   3.020861

atom: _________________________________________________________________________

prinput: Basis input ----------------------------------------------------------

PAO.BasisType split     

%block ChemicalSpeciesLabel
    1   79 Au_bulk                 # Species index, atomic number, species label
    2    7 N                       # Species index, atomic number, species label
    3    6 C                       # Species index, atomic number, species label
    4    1 H                       # Species index, atomic number, species label
    5   79 Au                      # Species index, atomic number, species label
    6   79 Au_surf                 # Species index, atomic number, species label
    7   79 Au_tip                  # Species index, atomic number, species label
%endblock ChemicalSpeciesLabel

%block PAO.Basis                 # Define Basis set
Au_bulk     2                    # Species label, number of l-shells
 n=6   0   1                         # n, l, Nzeta 
   6.557   
   1.000   
 n=5   2   1                         # n, l, Nzeta 
   5.933   
   1.000   
N           2                    # Species label, number of l-shells
 n=2   0   2                         # n, l, Nzeta 
   3.684      2.905   
   1.000      1.000   
 n=2   1   2 P   1                   # n, l, Nzeta, Polarization, NzetaPol
   4.389      2.979   
   1.000      1.000   
C           2                    # Species label, number of l-shells
 n=2   0   2                         # n, l, Nzeta 
   4.192      3.432   
   1.000      1.000   
 n=2   1   2 P   1                   # n, l, Nzeta, Polarization, NzetaPol
   4.870      3.475   
   1.000      1.000   
H           1                    # Species label, number of l-shells
 n=1   0   2 P   1                   # n, l, Nzeta, Polarization, NzetaPol
   4.828      3.855   
   1.000      1.000   
Au          2                    # Species label, number of l-shells
 n=6   0   1                         # n, l, Nzeta 
   6.557   
   1.000   
 n=5   2   1                         # n, l, Nzeta 
   5.933   
   1.000   
Au_surf     2                    # Species label, number of l-shells
 n=6   0   2 P   1                   # n, l, Nzeta, Polarization, NzetaPol
   6.083      5.644   
   1.000      1.000   
 n=5   2   2                         # n, l, Nzeta 
   4.287      2.803   
   1.000      1.000   
Au_tip      2                    # Species label, number of l-shells
 n=6   0   2 P   1                   # n, l, Nzeta, Polarization, NzetaPol
   3.021      3.021   
   1.000      1.000   
 n=5   2   2                         # n, l, Nzeta 
   3.021      3.021   
   1.000      1.000   
%endblock PAO.Basis

prinput: ----------------------------------------------------------------------


siesta: ******************** Simulation parameters ****************************
siesta:
siesta: The following are some of the parameters of the simulation.
siesta: A complete list of the parameters used, including defect values,
siesta: can be found in file out.fdf
siesta:
coor:   Atomic-coordinates input format  =     Cartesian coordinates
coor:                                          (in Angstroms)
redata: Number of spin components        =     1
redata: SpinOrbit                        =     0
redata: Long output                      =     F
redata: Number of Atomic Species         =     7
redata: Charge density info will appear in .RHO file
redata: Write Mulliken Pop.              =     NO
redata: Write Hamilton Pop.              =     NO
redata: Mesh Cutoff                      =   200.0000  Ry
redata: Net charge of the system         =     0.0000 |e|
redata: Max. number of SCF Iter          =   500
redata: One Pulay mixing every           =     4 iterations
redata: Mix DM in first SCF step ?       =     T
redata: Write Pulay info on disk?        =     F
redata: New DM Mixing Weight             =     0.1000
redata: No kicks to SCF
redata: DM Mixing Weight for Kicks       =     0.5000
redata: DM Tolerance for SCF             =     0.000100
redata: Use continuation files for DM    =     T
redata: Neglect nonoverlap interactions  =     F
redata: Method of Calculation            =     Diagonalization
redata: Divide and Conquer               =     F
redata: Electronic Temperature           =     0.0019  Ry
redata: Fix the spin of the system       =     F
redata: Dynamics option                  =     CG coord. optimization
redata: Variable cell                    =     F
redata: Use continuation files for CG    =     F
redata: Maximum number of CG moves       =     0
redata: Max atomic displ per move        =     0.2000  Bohr
redata: Force tolerance                  =     0.0016  Ry/Bohr
redata: ***********************************************************************

siesta: Atomic coordinates (Bohr) and species
siesta:      0.00000   0.00000   0.00000  1        1
siesta:      0.00000   5.58414   0.00000  1        2
siesta:      0.00000  11.17018   0.00000  1        3
siesta:      5.58603   0.00000   0.00000  1        4
siesta:      5.58603   5.58414   0.00000  1        5
siesta:      5.58603  11.17018   0.00000  1        6
siesta:     11.17207   0.00000   0.00000  1        7
siesta:     11.17207   5.58414   0.00000  1        8
siesta:     11.17207  11.17018   0.00000  1        9
siesta:     16.38393   0.00000   0.00000  1       10
siesta:     16.38393   5.58414   0.00000  1       11
siesta:     16.38393  11.17018   0.00000  1       12
siesta:     21.96996   0.00000   0.00000  1       13
siesta:     21.96996   5.58414   0.00000  1       14
siesta:     21.96996  11.17018   0.00000  1       15
siesta:      2.79302   2.79302   3.94953  1       16
siesta:      2.79302   8.37716   3.94953  1       17
siesta:      2.79302  13.96319   3.94953  1       18
siesta:      8.37905   2.79302   3.94953  1       19
siesta:      8.37905   8.37716   3.94953  1       20
siesta:      8.37905  13.96319   3.94953  1       21
siesta:     13.59092   2.79302   3.94953  1       22
siesta:     13.59092   8.37716   3.94953  1       23
siesta:     13.59092  13.96319   3.94953  1       24
siesta:     19.17695   2.79302   3.94953  1       25
siesta:     19.17695   8.37716   3.94953  1       26
siesta:     19.17695  13.96319   3.94953  1       27
siesta:     24.76298   2.79302   3.94953  1       28
siesta:     24.76298   8.37716   3.94953  1       29
siesta:     24.76298  13.96319   3.94953  1       30
siesta:      0.00000   0.00000   7.89906  1       31
siesta:      0.00000   5.58414   7.89906  1       32
siesta:      0.00000  11.17018   7.89906  1       33
siesta:      5.58603   0.00000   7.89906  1       34
siesta:      5.58603   5.58414   7.89906  1       35
siesta:      5.58603  11.17018   7.89906  1       36
siesta:     11.17207   0.00000   7.89906  1       37
siesta:     11.17207   5.58414   7.89906  1       38
siesta:     11.17207  11.17018   7.89906  1       39
siesta:     16.38393   0.00000   7.89906  1       40
siesta:     16.38393   5.58414   7.89906  1       41
siesta:     16.38393  11.17018   7.89906  1       42
siesta:     21.96996   0.00000   7.89906  1       43
siesta:     21.96996   5.58414   7.89906  1       44
siesta:     21.96996  11.17018   7.89906  1       45
siesta:      2.79302   2.79302  11.84859  1       46
siesta:      2.79302   8.37716  11.84859  1       47
siesta:      2.79302  13.96319  11.84859  1       48
siesta:      8.37905   2.79302  11.84859  1       49
siesta:      8.37905   8.37716  11.84859  1       50
siesta:      8.37905  13.96319  11.84859  1       51
siesta:     13.59092   2.79302  11.84859  1       52
siesta:     13.59092   8.37716  11.84859  1       53
siesta:     13.59092  13.96319  11.84859  1       54
siesta:     19.17695   2.79302  11.84859  1       55
siesta:     19.17695   8.37716  11.84859  1       56
siesta:     19.17695  13.96319  11.84859  1       57
siesta:     24.76298   2.79302  11.84859  1       58
siesta:     24.76298   8.37716  11.84859  1       59
siesta:     24.76298  13.96319  11.84859  1       60
siesta:      0.00000   0.00000  15.79812  5       61
siesta:      0.00000   5.58414  15.79812  5       62
siesta:      0.00000  11.17018  15.79812  5       63
siesta:      5.58603   0.00000  15.79812  5       64
siesta:      5.58603   5.58414  15.79812  5       65
siesta:      5.58603  11.17018  15.79812  5       66
siesta:     11.17207   0.00000  15.79812  5       67
siesta:     11.17207   5.58414  15.79812  5       68
siesta:     11.17207  11.17018  15.79812  5       69
siesta:     16.38393   0.00000  15.79812  5       70
siesta:     16.38393   5.58414  15.79812  5       71
siesta:     16.38393  11.17018  15.79812  5       72
siesta:     21.96996   0.00000  15.79812  5       73
siesta:     21.96996   5.58414  15.79812  5       74
siesta:     21.96996  11.17018  15.79812  5       75
siesta:      2.79302   2.79302  19.74765  6       76
siesta:      2.79302   8.37716  19.74765  6       77
siesta:      2.79302  13.96319  19.74765  6       78
siesta:      8.37905   2.79302  19.74765  6       79
siesta:      8.37905   8.37716  19.74765  6       80
siesta:      8.37905  13.96319  19.74765  6       81
siesta:     13.59092   2.79302  19.74765  6       82
siesta:     13.59092   8.37716  19.74765  6       83
siesta:     13.59092  13.96319  19.74765  6       84
siesta:     19.17695   2.79302  19.74765  6       85
siesta:     19.17695   8.37716  19.74765  6       86
siesta:     19.17695  13.96319  19.74765  6       87
siesta:     24.76298   2.79302  19.74765  6       88
siesta:     24.76298   8.37716  19.74765  6       89
siesta:     24.76298  13.96319  19.74765  6       90
siesta:      9.17538  11.17188  22.73682  2       91
siesta:     18.00532  11.17528  22.74097  2       92
siesta:     13.59092  11.21364  22.75231  2       93
siesta:      7.68615  11.16073  23.97637  4       94
siesta:     19.49991  11.16598  23.97260  4       95
siesta:     11.33639  11.17822  24.17460  3       96
siesta:     15.82433  11.18336  24.05898  3       97
siesta:     15.72773  11.15913  26.60829  2       98
siesta:     11.21445  11.14591  26.64846  2       99
siesta:     13.42455  11.13038  28.02220  3      100
siesta:     13.68465  11.08470  30.43682  2      101
siesta:     11.92763  11.06389  31.25533  4      102
siesta:     17.33703  11.12601  27.66752  4      103
siesta:     13.81768  11.21364  39.76552  7      104
siesta:     10.98498  14.04823  43.44860  7      105
siesta:     16.65416   8.37905  43.44860  7      106
siesta:     10.98498   8.37716  43.44860  7      107
siesta:     16.65416  14.04823  43.44860  7      108
siesta:      2.79302   2.79302  47.39813  5      109
siesta:      2.79302   8.37716  47.39813  5      110
siesta:      2.79302  13.96319  47.39813  5      111
siesta:      8.37905   2.79302  47.39813  5      112
siesta:      8.37905   8.37716  47.39813  5      113
siesta:      8.37905  13.96319  47.39813  5      114
siesta:     13.59092   2.79302  47.39813  5      115
siesta:     13.59092   8.37716  47.39813  5      116
siesta:     13.59092  13.96319  47.39813  5      117
siesta:     19.17695   2.79302  47.39813  5      118
siesta:     19.17695   8.37716  47.39813  5      119
siesta:     19.17695  13.96319  47.39813  5      120
siesta:     24.76298   2.79302  47.39813  5      121
siesta:     24.76298   8.37716  47.39813  5      122
siesta:     24.76298  13.96319  47.39813  5      123
siesta:      0.00000   0.00000  51.34766  1      124
siesta:      0.00000   5.58414  51.34766  1      125
siesta:      0.00000  11.17018  51.34766  1      126
siesta:      5.58603   0.00000  51.34766  1      127
siesta:      5.58603   5.58414  51.34766  1      128
siesta:      5.58603  11.17018  51.34766  1      129
siesta:     11.17207   0.00000  51.34766  1      130
siesta:     11.17207   5.58414  51.34766  1      131
siesta:     11.17207  11.17018  51.34766  1      132
siesta:     16.38393   0.00000  51.34766  1      133
siesta:     16.38393   5.58414  51.34766  1      134
siesta:     16.38393  11.17018  51.34766  1      135
siesta:     21.96996   0.00000  51.34766  1      136
siesta:     21.96996   5.58414  51.34766  1      137
siesta:     21.96996  11.17018  51.34766  1      138
siesta:      2.79302   2.79302  55.29719  1      139
siesta:      2.79302   8.37716  55.29719  1      140
siesta:      2.79302  13.96319  55.29719  1      141
siesta:      8.37905   2.79302  55.29719  1      142
siesta:      8.37905   8.37716  55.29719  1      143
siesta:      8.37905  13.96319  55.29719  1      144
siesta:     13.59092   2.79302  55.29719  1      145
siesta:     13.59092   8.37716  55.29719  1      146
siesta:     13.59092  13.96319  55.29719  1      147
siesta:     19.17695   2.79302  55.29719  1      148
siesta:     19.17695   8.37716  55.29719  1      149
siesta:     19.17695  13.96319  55.29719  1      150
siesta:     24.76298   2.79302  55.29719  1      151
siesta:     24.76298   8.37716  55.29719  1      152
siesta:     24.76298  13.96319  55.29719  1      153
siesta:      0.00000   0.00000  59.24672  1      154
siesta:      0.00000   5.58414  59.24672  1      155
siesta:      0.00000  11.17018  59.24672  1      156
siesta:      5.58603   0.00000  59.24672  1      157
siesta:      5.58603   5.58414  59.24672  1      158
siesta:      5.58603  11.17018  59.24672  1      159
siesta:     11.17207   0.00000  59.24672  1      160
siesta:     11.17207   5.58414  59.24672  1      161
siesta:     11.17207  11.17018  59.24672  1      162
siesta:     16.38393   0.00000  59.24672  1      163
siesta:     16.38393   5.58414  59.24672  1      164
siesta:     16.38393  11.17018  59.24672  1      165
siesta:     21.96996   0.00000  59.24672  1      166
siesta:     21.96996   5.58414  59.24672  1      167
siesta:     21.96996  11.17018  59.24672  1      168
siesta:      2.79302   2.79302  63.19625  1      169
siesta:      2.79302   8.37716  63.19625  1      170
siesta:      2.79302  13.96319  63.19625  1      171
siesta:      8.37905   2.79302  63.19625  1      172
siesta:      8.37905   8.37716  63.19625  1      173
siesta:      8.37905  13.96319  63.19625  1      174
siesta:     13.59092   2.79302  63.19625  1      175
siesta:     13.59092   8.37716  63.19625  1      176
siesta:     13.59092  13.96319  63.19625  1      177
siesta:     19.17695   2.79302  63.19625  1      178
siesta:     19.17695   8.37716  63.19625  1      179
siesta:     19.17695  13.96319  63.19625  1      180
siesta:     24.76298   2.79302  63.19625  1      181
siesta:     24.76298   8.37716  63.19625  1      182
siesta:     24.76298  13.96319  63.19625  1      183

initatomlists: Number of atoms, orbitals, and projectors:    183  1337  2900

siesta: System type = bulk      
 Nodes, Orbitals          64        1337
 blocksizedefault           8

* ProcessorY, Blocksize:    8   8


siesta: k-grid: Number of k-points =     6
siesta: k-grid: Cutoff             =    14.582 Ang
siesta: k-grid: Supercell and displacements
siesta: k-grid:    2   0   0      0.000
siesta: k-grid:    0   4   0      0.000
siesta: k-grid:    0   0   1      0.000
siesta: overlap:  rmaxh   veclen  direction
siesta: overlap:  20.0465 27.5560   1
siesta: overlap:  rmaxh   veclen  direction
siesta: overlap:  20.0465 16.7543   2
siesta: overlap:  rmaxh   veclen  direction
siesta: overlap:  20.0465 67.1458   3
 label:           1 Au_bulk                        1 s      
 label:           2 Au_bulk                        1 dxy    
 label:           3 Au_bulk                        1 dyz    
 label:           4 Au_bulk                        1 dz2    
 label:           5 Au_bulk                        1 dxz    
 label:           6 Au_bulk                        1 dx2-y2 
 label:           7 Au_bulk                        2 s      
 label:           8 Au_bulk                        2 dxy    
 label:           9 Au_bulk                        2 dyz    
 label:          10 Au_bulk                        2 dz2    
 label:          11 Au_bulk                        2 dxz    
 label:          12 Au_bulk                        2 dx2-y2 
 label:          13 Au_bulk                        3 s      
 label:          14 Au_bulk                        3 dxy    
 label:          15 Au_bulk                        3 dyz    
 label:          16 Au_bulk                        3 dz2    
 label:          17 Au_bulk                        3 dxz    
 label:          18 Au_bulk                        3 dx2-y2 
 label:          19 Au_bulk                        4 s      
 label:          20 Au_bulk                        4 dxy    
 label:          21 Au_bulk                        4 dyz    
 label:          22 Au_bulk                        4 dz2    
 label:          23 Au_bulk                        4 dxz    
 label:          24 Au_bulk                        4 dx2-y2 
 label:          25 Au_bulk                        5 s      
 label:          26 Au_bulk                        5 dxy    
 label:          27 Au_bulk                        5 dyz    
 label:          28 Au_bulk                        5 dz2    
 label:          29 Au_bulk                        5 dxz    
 label:          30 Au_bulk                        5 dx2-y2 
 label:          31 Au_bulk                        6 s      
 label:          32 Au_bulk                        6 dxy    
 label:          33 Au_bulk                        6 dyz    
 label:          34 Au_bulk                        6 dz2    
 label:          35 Au_bulk                        6 dxz    
 label:          36 Au_bulk                        6 dx2-y2 
 label:          37 Au_bulk                        7 s      
 label:          38 Au_bulk                        7 dxy    
 label:          39 Au_bulk                        7 dyz    
 label:          40 Au_bulk                        7 dz2    
 label:          41 Au_bulk                        7 dxz    
 label:          42 Au_bulk                        7 dx2-y2 
 label:          43 Au_bulk                        8 s      
 label:          44 Au_bulk                        8 dxy    
 label:          45 Au_bulk                        8 dyz    
 label:          46 Au_bulk                        8 dz2    
 label:          47 Au_bulk                        8 dxz    
 label:          48 Au_bulk                        8 dx2-y2 
 label:          49 Au_bulk                        9 s      
 label:          50 Au_bulk                        9 dxy    
 label:          51 Au_bulk                        9 dyz    
 label:          52 Au_bulk                        9 dz2    
 label:          53 Au_bulk                        9 dxz    
 label:          54 Au_bulk                        9 dx2-y2 
 label:          55 Au_bulk                       10 s      
 label:          56 Au_bulk                       10 dxy    
 label:          57 Au_bulk                       10 dyz    
 label:          58 Au_bulk                       10 dz2    
 label:          59 Au_bulk                       10 dxz    
 label:          60 Au_bulk                       10 dx2-y2 
 label:          61 Au_bulk                       11 s      
 label:          62 Au_bulk                       11 dxy    
 label:          63 Au_bulk                       11 dyz    
 label:          64 Au_bulk                       11 dz2    
 label:          65 Au_bulk                       11 dxz    
 label:          66 Au_bulk                       11 dx2-y2 
 label:          67 Au_bulk                       12 s      
 label:          68 Au_bulk                       12 dxy    
 label:          69 Au_bulk                       12 dyz    
 label:          70 Au_bulk                       12 dz2    
 label:          71 Au_bulk                       12 dxz    
 label:          72 Au_bulk                       12 dx2-y2 
 label:          73 Au_bulk                       13 s      
 label:          74 Au_bulk                       13 dxy    
 label:          75 Au_bulk                       13 dyz    
 label:          76 Au_bulk                       13 dz2    
 label:          77 Au_bulk                       13 dxz    
 label:          78 Au_bulk                       13 dx2-y2 
 label:          79 Au_bulk                       14 s      
 label:          80 Au_bulk                       14 dxy    
 label:          81 Au_bulk                       14 dyz    
 label:          82 Au_bulk                       14 dz2    
 label:          83 Au_bulk                       14 dxz    
 label:          84 Au_bulk                       14 dx2-y2 
 label:          85 Au_bulk                       15 s      
 label:          86 Au_bulk                       15 dxy    
 label:          87 Au_bulk                       15 dyz    
 label:          88 Au_bulk                       15 dz2    
 label:          89 Au_bulk                       15 dxz    
 label:          90 Au_bulk                       15 dx2-y2 
 label:          91 Au_bulk                       16 s      
 label:          92 Au_bulk                       16 dxy    
 label:          93 Au_bulk                       16 dyz    
 label:          94 Au_bulk                       16 dz2    
 label:          95 Au_bulk                       16 dxz    
 label:          96 Au_bulk                       16 dx2-y2 
 label:          97 Au_bulk                       17 s      
 label:          98 Au_bulk                       17 dxy    
 label:          99 Au_bulk                       17 dyz    
 label:         100 Au_bulk                       17 dz2    
 label:         101 Au_bulk                       17 dxz    
 label:         102 Au_bulk                       17 dx2-y2 
 label:         103 Au_bulk                       18 s      
 label:         104 Au_bulk                       18 dxy    
 label:         105 Au_bulk                       18 dyz    
 label:         106 Au_bulk                       18 dz2    
 label:         107 Au_bulk                       18 dxz    
 label:         108 Au_bulk                       18 dx2-y2 
 label:         109 Au_bulk                       19 s      
 label:         110 Au_bulk                       19 dxy    
 label:         111 Au_bulk                       19 dyz    
 label:         112 Au_bulk                       19 dz2    
 label:         113 Au_bulk                       19 dxz    
 label:         114 Au_bulk                       19 dx2-y2 
 label:         115 Au_bulk                       20 s      
 label:         116 Au_bulk                       20 dxy    
 label:         117 Au_bulk                       20 dyz    
 label:         118 Au_bulk                       20 dz2    
 label:         119 Au_bulk                       20 dxz    
 label:         120 Au_bulk                       20 dx2-y2 
 label:         121 Au_bulk                       21 s      
 label:         122 Au_bulk                       21 dxy    
 label:         123 Au_bulk                       21 dyz    
 label:         124 Au_bulk                       21 dz2    
 label:         125 Au_bulk                       21 dxz    
 label:         126 Au_bulk                       21 dx2-y2 
 label:         127 Au_bulk                       22 s      
 label:         128 Au_bulk                       22 dxy    
 label:         129 Au_bulk                       22 dyz    
 label:         130 Au_bulk                       22 dz2    
 label:         131 Au_bulk                       22 dxz    
 label:         132 Au_bulk                       22 dx2-y2 
 label:         133 Au_bulk                       23 s      
 label:         134 Au_bulk                       23 dxy    
 label:         135 Au_bulk                       23 dyz    
 label:         136 Au_bulk                       23 dz2    
 label:         137 Au_bulk                       23 dxz    
 label:         138 Au_bulk                       23 dx2-y2 
 label:         139 Au_bulk                       24 s      
 label:         140 Au_bulk                       24 dxy    
 label:         141 Au_bulk                       24 dyz    
 label:         142 Au_bulk                       24 dz2    
 label:         143 Au_bulk                       24 dxz    
 label:         144 Au_bulk                       24 dx2-y2 
 label:         145 Au_bulk                       25 s      
 label:         146 Au_bulk                       25 dxy    
 label:         147 Au_bulk                       25 dyz    
 label:         148 Au_bulk                       25 dz2    
 label:         149 Au_bulk                       25 dxz    
 label:         150 Au_bulk                       25 dx2-y2 
 label:         151 Au_bulk                       26 s      
 label:         152 Au_bulk                       26 dxy    
 label:         153 Au_bulk                       26 dyz    
 label:         154 Au_bulk                       26 dz2    
 label:         155 Au_bulk                       26 dxz    
 label:         156 Au_bulk                       26 dx2-y2 
 label:         157 Au_bulk                       27 s      
 label:         158 Au_bulk                       27 dxy    
 label:         159 Au_bulk                       27 dyz    
 label:         160 Au_bulk                       27 dz2    
 label:         161 Au_bulk                       27 dxz    
 label:         162 Au_bulk                       27 dx2-y2 
 label:         163 Au_bulk                       28 s      
 label:         164 Au_bulk                       28 dxy    
 label:         165 Au_bulk                       28 dyz    
 label:         166 Au_bulk                       28 dz2    
 label:         167 Au_bulk                       28 dxz    
 label:         168 Au_bulk                       28 dx2-y2 
 label:         169 Au_bulk                       29 s      
 label:         170 Au_bulk                       29 dxy    
 label:         171 Au_bulk                       29 dyz    
 label:         172 Au_bulk                       29 dz2    
 label:         173 Au_bulk                       29 dxz    
 label:         174 Au_bulk                       29 dx2-y2 
 label:         175 Au_bulk                       30 s      
 label:         176 Au_bulk                       30 dxy    
 label:         177 Au_bulk                       30 dyz    
 label:         178 Au_bulk                       30 dz2    
 label:         179 Au_bulk                       30 dxz    
 label:         180 Au_bulk                       30 dx2-y2 
 label:         181 Au_bulk                       31 s      
 label:         182 Au_bulk                       31 dxy    
 label:         183 Au_bulk                       31 dyz    
 label:         184 Au_bulk                       31 dz2    
 label:         185 Au_bulk                       31 dxz    
 label:         186 Au_bulk                       31 dx2-y2 
 label:         187 Au_bulk                       32 s      
 label:         188 Au_bulk                       32 dxy    
 label:         189 Au_bulk                       32 dyz    
 label:         190 Au_bulk                       32 dz2    
 label:         191 Au_bulk                       32 dxz    
 label:         192 Au_bulk                       32 dx2-y2 
 label:         193 Au_bulk                       33 s      
 label:         194 Au_bulk                       33 dxy    
 label:         195 Au_bulk                       33 dyz    
 label:         196 Au_bulk                       33 dz2    
 label:         197 Au_bulk                       33 dxz    
 label:         198 Au_bulk                       33 dx2-y2 
 label:         199 Au_bulk                       34 s      
 label:         200 Au_bulk                       34 dxy    
 label:         201 Au_bulk                       34 dyz    
 label:         202 Au_bulk                       34 dz2    
 label:         203 Au_bulk                       34 dxz    
 label:         204 Au_bulk                       34 dx2-y2 
 label:         205 Au_bulk                       35 s      
 label:         206 Au_bulk                       35 dxy    
 label:         207 Au_bulk                       35 dyz    
 label:         208 Au_bulk                       35 dz2    
 label:         209 Au_bulk                       35 dxz    
 label:         210 Au_bulk                       35 dx2-y2 
 label:         211 Au_bulk                       36 s      
 label:         212 Au_bulk                       36 dxy    
 label:         213 Au_bulk                       36 dyz    
 label:         214 Au_bulk                       36 dz2    
 label:         215 Au_bulk                       36 dxz    
 label:         216 Au_bulk                       36 dx2-y2 
 label:         217 Au_bulk                       37 s      
 label:         218 Au_bulk                       37 dxy    
 label:         219 Au_bulk                       37 dyz    
 label:         220 Au_bulk                       37 dz2    
 label:         221 Au_bulk                       37 dxz    
 label:         222 Au_bulk                       37 dx2-y2 
 label:         223 Au_bulk                       38 s      
 label:         224 Au_bulk                       38 dxy    
 label:         225 Au_bulk                       38 dyz    
 label:         226 Au_bulk                       38 dz2    
 label:         227 Au_bulk                       38 dxz    
 label:         228 Au_bulk                       38 dx2-y2 
 label:         229 Au_bulk                       39 s      
 label:         230 Au_bulk                       39 dxy    
 label:         231 Au_bulk                       39 dyz    
 label:         232 Au_bulk                       39 dz2    
 label:         233 Au_bulk                       39 dxz    
 label:         234 Au_bulk                       39 dx2-y2 
 label:         235 Au_bulk                       40 s      
 label:         236 Au_bulk                       40 dxy    
 label:         237 Au_bulk                       40 dyz    
 label:         238 Au_bulk                       40 dz2    
 label:         239 Au_bulk                       40 dxz    
 label:         240 Au_bulk                       40 dx2-y2 
 label:         241 Au_bulk                       41 s      
 label:         242 Au_bulk                       41 dxy    
 label:         243 Au_bulk                       41 dyz    
 label:         244 Au_bulk                       41 dz2    
 label:         245 Au_bulk                       41 dxz    
 label:         246 Au_bulk                       41 dx2-y2 
 label:         247 Au_bulk                       42 s      
 label:         248 Au_bulk                       42 dxy    
 label:         249 Au_bulk                       42 dyz    
 label:         250 Au_bulk                       42 dz2    
 label:         251 Au_bulk                       42 dxz    
 label:         252 Au_bulk                       42 dx2-y2 
 label:         253 Au_bulk                       43 s      
 label:         254 Au_bulk                       43 dxy    
 label:         255 Au_bulk                       43 dyz    
 label:         256 Au_bulk                       43 dz2    
 label:         257 Au_bulk                       43 dxz    
 label:         258 Au_bulk                       43 dx2-y2 
 label:         259 Au_bulk                       44 s      
 label:         260 Au_bulk                       44 dxy    
 label:         261 Au_bulk                       44 dyz    
 label:         262 Au_bulk                       44 dz2    
 label:         263 Au_bulk                       44 dxz    
 label:         264 Au_bulk                       44 dx2-y2 
 label:         265 Au_bulk                       45 s      
 label:         266 Au_bulk                       45 dxy    
 label:         267 Au_bulk                       45 dyz    
 label:         268 Au_bulk                       45 dz2    
 label:         269 Au_bulk                       45 dxz    
 label:         270 Au_bulk                       45 dx2-y2 
 label:         271 Au_bulk                       46 s      
 label:         272 Au_bulk                       46 dxy    
 label:         273 Au_bulk                       46 dyz    
 label:         274 Au_bulk                       46 dz2    
 label:         275 Au_bulk                       46 dxz    
 label:         276 Au_bulk                       46 dx2-y2 
 label:         277 Au_bulk                       47 s      
 label:         278 Au_bulk                       47 dxy    
 label:         279 Au_bulk                       47 dyz    
 label:         280 Au_bulk                       47 dz2    
 label:         281 Au_bulk                       47 dxz    
 label:         282 Au_bulk                       47 dx2-y2 
 label:         283 Au_bulk                       48 s      
 label:         284 Au_bulk                       48 dxy    
 label:         285 Au_bulk                       48 dyz    
 label:         286 Au_bulk                       48 dz2    
 label:         287 Au_bulk                       48 dxz    
 label:         288 Au_bulk                       48 dx2-y2 
 label:         289 Au_bulk                       49 s      
 label:         290 Au_bulk                       49 dxy    
 label:         291 Au_bulk                       49 dyz    
 label:         292 Au_bulk                       49 dz2    
 label:         293 Au_bulk                       49 dxz    
 label:         294 Au_bulk                       49 dx2-y2 
 label:         295 Au_bulk                       50 s      
 label:         296 Au_bulk                       50 dxy    
 label:         297 Au_bulk                       50 dyz    
 label:         298 Au_bulk                       50 dz2    
 label:         299 Au_bulk                       50 dxz    
 label:         300 Au_bulk                       50 dx2-y2 
 label:         301 Au_bulk                       51 s      
 label:         302 Au_bulk                       51 dxy    
 label:         303 Au_bulk                       51 dyz    
 label:         304 Au_bulk                       51 dz2    
 label:         305 Au_bulk                       51 dxz    
 label:         306 Au_bulk                       51 dx2-y2 
 label:         307 Au_bulk                       52 s      
 label:         308 Au_bulk                       52 dxy    
 label:         309 Au_bulk                       52 dyz    
 label:         310 Au_bulk                       52 dz2    
 label:         311 Au_bulk                       52 dxz    
 label:         312 Au_bulk                       52 dx2-y2 
 label:         313 Au_bulk                       53 s      
 label:         314 Au_bulk                       53 dxy    
 label:         315 Au_bulk                       53 dyz    
 label:         316 Au_bulk                       53 dz2    
 label:         317 Au_bulk                       53 dxz    
 label:         318 Au_bulk                       53 dx2-y2 
 label:         319 Au_bulk                       54 s      
 label:         320 Au_bulk                       54 dxy    
 label:         321 Au_bulk                       54 dyz    
 label:         322 Au_bulk                       54 dz2    
 label:         323 Au_bulk                       54 dxz    
 label:         324 Au_bulk                       54 dx2-y2 
 label:         325 Au_bulk                       55 s      
 label:         326 Au_bulk                       55 dxy    
 label:         327 Au_bulk                       55 dyz    
 label:         328 Au_bulk                       55 dz2    
 label:         329 Au_bulk                       55 dxz    
 label:         330 Au_bulk                       55 dx2-y2 
 label:         331 Au_bulk                       56 s      
 label:         332 Au_bulk                       56 dxy    
 label:         333 Au_bulk                       56 dyz    
 label:         334 Au_bulk                       56 dz2    
 label:         335 Au_bulk                       56 dxz    
 label:         336 Au_bulk                       56 dx2-y2 
 label:         337 Au_bulk                       57 s      
 label:         338 Au_bulk                       57 dxy    
 label:         339 Au_bulk                       57 dyz    
 label:         340 Au_bulk                       57 dz2    
 label:         341 Au_bulk                       57 dxz    
 label:         342 Au_bulk                       57 dx2-y2 
 label:         343 Au_bulk                       58 s      
 label:         344 Au_bulk                       58 dxy    
 label:         345 Au_bulk                       58 dyz    
 label:         346 Au_bulk                       58 dz2    
 label:         347 Au_bulk                       58 dxz    
 label:         348 Au_bulk                       58 dx2-y2 
 label:         349 Au_bulk                       59 s      
 label:         350 Au_bulk                       59 dxy    
 label:         351 Au_bulk                       59 dyz    
 label:         352 Au_bulk                       59 dz2    
 label:         353 Au_bulk                       59 dxz    
 label:         354 Au_bulk                       59 dx2-y2 
 label:         355 Au_bulk                       60 s      
 label:         356 Au_bulk                       60 dxy    
 label:         357 Au_bulk                       60 dyz    
 label:         358 Au_bulk                       60 dz2    
 label:         359 Au_bulk                       60 dxz    
 label:         360 Au_bulk                       60 dx2-y2 
 label:         361 Au                            61 s      
 label:         362 Au                            61 dxy    
 label:         363 Au                            61 dyz    
[...]
   112   -0.245874    0.109348    0.261477
   113   -0.833471    0.007592   -2.447343
   114   -0.662978   -0.115962   -1.944282
   115    0.367079    0.139185   -1.112337
   116    1.520933    0.088254   -6.503617
   117    1.252054   -0.207298   -6.112170
   118   -0.442452    0.107088    0.314401
   119   -0.227944    0.001888   -2.566977
   120   -0.401259   -0.110152   -2.068223
   121   -0.051134    0.087885    1.060743
   122    0.240334    0.049351    0.551695
   123    0.188512   -0.139802    1.111238
   124   -0.027239    0.048295   -0.096117
   125   -0.027089   -0.077824    0.250498
   126   -0.022231    0.031009    0.304733
   127   -0.526169    0.178198    0.248993
   128   -0.549064   -0.211995    0.576442
   129   -0.719986    0.038049    0.669359
   130   -1.195882    0.759602    1.181103
   131   -1.210951   -0.793892    1.490304
   132   -1.284204    0.042389    1.878935
   133    0.979571    0.656744    0.981277
   134    0.994129   -0.695339    1.288948
   135    0.997846    0.045304    1.630942
   136    0.555645    0.206032    0.317340
   137    0.577606   -0.239308    0.645140
   138    0.786115    0.037465    0.743110
   139    0.125927   -0.041622   -0.021678
   140    0.067895    0.001270   -0.008412
   141    0.137689    0.040214   -0.044820
   142   -0.448775   -0.066818   -0.065957
   143   -0.576703    0.010659   -0.172623
   144   -0.443365    0.058362   -0.160381
   145    0.335226   -0.126878   -0.039290
   146    0.476978    0.019505   -0.341454
   147    0.351605    0.106021   -0.270918
   148   -0.227765   -0.067368   -0.058753
   149   -0.098950    0.014127   -0.167828
   150   -0.231659    0.055610   -0.155785
   151   -0.066626   -0.041710   -0.027656
   152   -0.011027    0.001036   -0.009745
   153   -0.081002    0.040466   -0.045978
   154   -0.020807    0.001008    0.189810
   155   -0.020853   -0.028637    0.064632
   156   -0.020854    0.028922    0.064863
   157    0.105636    0.001810    0.215873
   158    0.092693   -0.028341    0.071341
   159    0.091674    0.027883    0.073711
   160   -0.478060    0.004829    0.273785
   161   -0.488532   -0.013542    0.087570
   162   -0.489350    0.011417    0.095116
   163    0.417776    0.003559    0.258971
   164    0.428690   -0.014982    0.073248
   165    0.429912    0.012941    0.079355
   166   -0.158576    0.001896    0.216056
   167   -0.145671   -0.028471    0.071668
   168   -0.144594    0.027909    0.074231
   169    0.113447    0.029373   -0.212072
   170    0.067422    0.001459    0.371082
   171    0.117373   -0.022483   -0.206674
   172   -0.468017    0.070296   -0.199277
   173   -0.566646    0.001380    0.356008
   174   -0.459367   -0.064792   -0.192865
   175    0.440129    0.121198   -0.172156
   176    0.557526    0.001302    0.305771
   177    0.432179   -0.116512   -0.165102
   178   -0.185500    0.069743   -0.201258
   179   -0.088329    0.001264    0.353870
   180   -0.194267   -0.064078   -0.194856
   181   -0.053940    0.029374   -0.212552
   182   -0.007794    0.001443    0.370644
   183   -0.057792   -0.022466   -0.207139
----------------------------------------
 Tot   -5.873767    0.273667    0.038427
----------------------------------------
 Max   18.132586
 Res    2.080088    sqrt( Sum f_i^2 / 3N )
----------------------------------------
 Max   18.132586    constrained
 
* Maximum dynamic memory allocated =    64 MB

coxmol: Writing XMOL coordinates into file IV.xyz                  
 siesta: ERROR: PDOS implemented only with diagon

siesta: Program's energy decomposition (eV):
siesta:-Eions   = -209125.473190
siesta: Ena     =   12310.602581
siesta: Ekin    =  116124.890641
siesta: Enl     =  -43799.096334
siesta: DEna    =     320.527592
siesta: DUscf   =      54.517404
siesta: DUext   =       0.000000
siesta: Exc     =  -71621.942246
siesta: eta*DQ  =       0.000000
siesta: Emadel  =       0.000000
siesta: Ekinion =       0.000000
siesta: Eharris = -195735.973764
siesta: Eso     =       0.000000
siesta: Etot    = -195735.973551
siesta: FreeEng = -195735.973551

siesta: Final energy (eV):
siesta:       Kinetic =  116124.890641
siesta:       Hartree =  748928.088962
siesta:    Ext. field =       0.000000
siesta:   Exch.-corr. =  -71621.942246
siesta:  Ion-electron =-1585966.021636
siesta:       Ion-ion =  596799.010728
siesta:       Ekinion =       0.000000
siesta:         Total = -195735.973551

siesta: Atomic forces (eV/Ang):
siesta:    1   -0.018976    0.000578    0.125542
siesta:    2   -0.018997   -0.194846    0.125376
siesta:    3   -0.019007    0.195504    0.125332
siesta:    4   -0.000359    0.000629    0.130745
siesta:    5    0.126708   -0.205273    0.130581
siesta:    6    0.126721    0.205941    0.130549
siesta:    7   -0.720700    0.001318    0.162710
siesta:    8   -0.419347   -0.220335    0.162682
siesta:    9   -0.418786    0.221570    0.162678
siesta:   10    0.657898    0.000783    0.145629
siesta:   11    0.356700   -0.221500    0.145555
siesta:   12    0.356532    0.222147    0.145550
siesta:   13   -0.051315    0.000636    0.130779
siesta:   14   -0.178509   -0.205198    0.130621
siesta:   15   -0.178485    0.205837    0.130587
siesta:   16    0.112643    0.029251    0.278054
siesta:   17    0.066668    0.001370   -0.305204
siesta:   18    0.116614   -0.022189    0.272818
siesta:   19   -0.411713    0.070186    0.274353
siesta:   20   -0.510186    0.001353   -0.280569
siesta:   21   -0.402858   -0.064563    0.268498
siesta:   22    0.391846    0.121203    0.275096
siesta:   23    0.509107    0.001379   -0.202198
siesta:   24    0.383817   -0.116416    0.268845
siesta:   25   -0.187691    0.069632    0.273271
siesta:   26   -0.090588    0.001241   -0.281710
siesta:   27   -0.196590   -0.063869    0.267246
siesta:   28   -0.059197    0.029248    0.277885
siesta:   29   -0.013070    0.001350   -0.305594
siesta:   30   -0.063049   -0.022171    0.272438
siesta:   31   -0.017150   -0.001767   -0.191511
siesta:   32   -0.017168   -0.025866   -0.066517
siesta:   33   -0.017054    0.028880   -0.070356
siesta:   34    0.117023   -0.002600   -0.171196
siesta:   35    0.103633   -0.023945   -0.027219
siesta:   36    0.103963    0.027802   -0.016849
siesta:   37   -0.406153   -0.003088   -0.189180
siesta:   38   -0.416917   -0.005996   -0.005446
siesta:   39   -0.414689    0.011495    0.001458
siesta:   40    0.339716   -0.006425   -0.193749
siesta:   41    0.350884   -0.005194   -0.010357
siesta:   42    0.349151    0.012943   -0.002396
siesta:   43   -0.167672   -0.004667   -0.182850
siesta:   44   -0.154342   -0.021924   -0.039553
siesta:   45   -0.154901    0.027843   -0.022821
siesta:   46    0.227273   -0.041762    0.481796
siesta:   47   -0.037391   -0.011132    0.324386
siesta:   48    0.031154    0.052285    0.361272
siesta:   49   -0.250655   -0.065146    0.371228
siesta:   50   -0.499567   -0.014095    0.299789
siesta:   51   -0.369450    0.080916    0.287974
siesta:   52    0.222019   -0.115718    0.437502
siesta:   53    0.385585   -0.066308    0.304109
siesta:   54    0.260656    0.181490    0.232445
siesta:   55   -0.284149   -0.064961    0.382663
siesta:   56   -0.070522   -0.035064    0.308405
siesta:   57   -0.201195    0.101869    0.295706
siesta:   58   -0.191734   -0.042738    0.454906
siesta:   59    0.079951   -0.000356    0.347592
siesta:   60    0.012196    0.042454    0.383757
siesta:   61   -0.014755    0.014271    1.781543
siesta:   62   -0.015057   -0.044037    1.439733
siesta:   63   -0.007206    0.031310    1.450088
siesta:   64    0.308344   -0.190588    2.028302
siesta:   65    0.281121    0.150299    1.698988
siesta:   66    0.080046    0.039720    1.387986
siesta:   67   -0.295440   -0.258073    2.205371
siesta:   68   -0.323202    0.202725    1.884866
siesta:   69   -0.389961    0.046785    1.209729
siesta:   70    0.246679   -0.168354    1.943408
siesta:   71    0.271890    0.112612    1.623274
siesta:   72    0.295251    0.048240    1.040788
siesta:   73   -0.337560   -0.180417    1.977300
siesta:   74   -0.309130    0.138974    1.646127
siesta:   75   -0.146925    0.039860    1.395701
siesta:   76    0.079647    0.113714   -3.280548
siesta:   77   -0.018854    0.055931   -2.629266
siesta:   78    0.026516   -0.167528   -3.200087
siesta:   79    0.333129    0.148132   -3.291288
siesta:   80    0.621880    1.586655    0.942900
siesta:   81    0.761996   -1.748848    0.422408
siesta:   82   -0.406465    0.199655   -3.147021
siesta:   83    0.010660    1.812716    1.318907
siesta:   84   -0.261900   -2.007990    0.977076
siesta:   85   -0.222128    0.148796   -3.378779
siesta:   86   -0.857683    1.424736    0.495815
siesta:   87   -1.019973   -1.596398   -0.008742
siesta:   88   -0.057618    0.113789   -3.264408
siesta:   89   -0.019830    0.060115   -2.636966
siesta:   90   -0.065256   -0.171771   -3.207391
siesta:   91    4.476424    0.016875   11.841006
siesta:   92   -5.051416    0.040898   13.218646
siesta:   93    1.216459   -0.437347   13.568038
siesta:   94    8.594022    0.057715   -7.296783
siesta:   95   -8.243065    0.048181   -8.025484
siesta:   96    1.035307   -0.096862   -0.943649
siesta:   97   -3.113826   -0.045879   -1.568434
siesta:   98   -3.157983   -0.304969   -2.385259
siesta:   99   18.132586    0.120237   -8.956689
siesta:  100    1.044094   -0.020114   -3.040688
siesta:  101  -13.063761    0.250814  -13.879608
siesta:  102   10.973386    0.147368   -6.125664
siesta:  103  -12.370545    0.247054   -7.399812
siesta:  104   -0.753670    0.111988    6.665889
siesta:  105    0.656308   -0.824140    2.624423
siesta:  106   -0.983200    1.088982    2.612542
siesta:  107    0.635032    1.070420    2.650200
siesta:  108   -1.034219   -1.293837    2.668522
siesta:  109    0.126951    0.087551    1.049965
siesta:  110   -0.168740    0.050808    0.541982
siesta:  111   -0.117307   -0.140817    1.102345
siesta:  112   -0.245874    0.109348    0.261477
siesta:  113   -0.833471    0.007592   -2.447343
siesta:  114   -0.662978   -0.115962   -1.944282
siesta:  115    0.367079    0.139185   -1.112337
siesta:  116    1.520933    0.088254   -6.503617
siesta:  117    1.252054   -0.207298   -6.112170
siesta:  118   -0.442452    0.107088    0.314401
siesta:  119   -0.227944    0.001888   -2.566977
siesta:  120   -0.401259   -0.110152   -2.068223
siesta:  121   -0.051134    0.087885    1.060743
siesta:  122    0.240334    0.049351    0.551695
siesta:  123    0.188512   -0.139802    1.111238
siesta:  124   -0.027239    0.048295   -0.096117
siesta:  125   -0.027089   -0.077824    0.250498
siesta:  126   -0.022231    0.031009    0.304733
siesta:  127   -0.526169    0.178198    0.248993
siesta:  128   -0.549064   -0.211995    0.576442
siesta:  129   -0.719986    0.038049    0.669359
siesta:  130   -1.195882    0.759602    1.181103
siesta:  131   -1.210951   -0.793892    1.490304
siesta:  132   -1.284204    0.042389    1.878935
siesta:  133    0.979571    0.656744    0.981277
siesta:  134    0.994129   -0.695339    1.288948
siesta:  135    0.997846    0.045304    1.630942
siesta:  136    0.555645    0.206032    0.317340
siesta:  137    0.577606   -0.239308    0.645140
siesta:  138    0.786115    0.037465    0.743110
siesta:  139    0.125927   -0.041622   -0.021678
siesta:  140    0.067895    0.001270   -0.008412
siesta:  141    0.137689    0.040214   -0.044820
siesta:  142   -0.448775   -0.066818   -0.065957
siesta:  143   -0.576703    0.010659   -0.172623
siesta:  144   -0.443365    0.058362   -0.160381
siesta:  145    0.335226   -0.126878   -0.039290
siesta:  146    0.476978    0.019505   -0.341454
siesta:  147    0.351605    0.106021   -0.270918
siesta:  148   -0.227765   -0.067368   -0.058753
siesta:  149   -0.098950    0.014127   -0.167828
siesta:  150   -0.231659    0.055610   -0.155785
siesta:  151   -0.066626   -0.041710   -0.027656
siesta:  152   -0.011027    0.001036   -0.009745
siesta:  153   -0.081002    0.040466   -0.045978
siesta:  154   -0.020807    0.001008    0.189810
siesta:  155   -0.020853   -0.028637    0.064632
siesta:  156   -0.020854    0.028922    0.064863
siesta:  157    0.105636    0.001810    0.215873
siesta:  158    0.092693   -0.028341    0.071341
siesta:  159    0.091674    0.027883    0.073711
siesta:  160   -0.478060    0.004829    0.273785
siesta:  161   -0.488532   -0.013542    0.087570
siesta:  162   -0.489350    0.011417    0.095116
siesta:  163    0.417776    0.003559    0.258971
siesta:  164    0.428690   -0.014982    0.073248
siesta:  165    0.429912    0.012941    0.079355
siesta:  166   -0.158576    0.001896    0.216056
siesta:  167   -0.145671   -0.028471    0.071668
siesta:  168   -0.144594    0.027909    0.074231
siesta:  169    0.113447    0.029373   -0.212072
siesta:  170    0.067422    0.001459    0.371082
siesta:  171    0.117373   -0.022483   -0.206674
siesta:  172   -0.468017    0.070296   -0.199277
siesta:  173   -0.566646    0.001380    0.356008
siesta:  174   -0.459367   -0.064792   -0.192865
siesta:  175    0.440129    0.121198   -0.172156
siesta:  176    0.557526    0.001302    0.305771
siesta:  177    0.432179   -0.116512   -0.165102
siesta:  178   -0.185500    0.069743   -0.201258
siesta:  179   -0.088329    0.001264    0.353870
siesta:  180   -0.194267   -0.064078   -0.194856
siesta:  181   -0.053940    0.029374   -0.212552
siesta:  182   -0.007794    0.001443    0.370644
siesta:  183   -0.057792   -0.022466   -0.207139
siesta: ----------------------------------------
siesta:  Tot   -5.873767    0.273667    0.038427

siesta: Stress tensor (static) (eV/Ang**3):
siesta:     0.123471    0.000018    0.000338
siesta:     0.000023    0.098883   -0.000461
siesta:     0.000113   -0.000471    0.125594

siesta: Cell volume =       4593.719514 Ang**3

siesta: Pressure (static):
siesta:                Solid            Molecule  Units
siesta:          -0.00126320         -0.00104708  Ry/Bohr**3
siesta:          -0.11598294         -0.09613887  eV/Ang**3
siesta:        -185.82716027       -154.03311320  kBar

siesta: Total spin polarization (Qup-Qdown) =    0.000000
siesta: Spin vector =    0.000000    0.000000    0.000000
siesta: No SpinPolK block detected...

siesta: Electric dipole (a.u.)  =    0.000000    0.000000   10.901997
siesta: Electric dipole (Debye) =    0.000000    0.000000   27.710132
 
* Maximum dynamic memory allocated : Node    0 =    64 MB
* Maximum dynamic memory allocated : Node    1 =    37 MB
* Maximum dynamic memory allocated : Node    2 =    32 MB
* Maximum dynamic memory allocated : Node    3 =    21 MB
* Maximum dynamic memory allocated : Node    4 =    20 MB
* Maximum dynamic memory allocated : Node    5 =    29 MB
* Maximum dynamic memory allocated : Node    6 =    36 MB
* Maximum dynamic memory allocated : Node    7 =    36 MB
* Maximum dynamic memory allocated : Node    8 =    36 MB
* Maximum dynamic memory allocated : Node    9 =    36 MB
* Maximum dynamic memory allocated : Node   10 =    31 MB
* Maximum dynamic memory allocated : Node   11 =    21 MB
* Maximum dynamic memory allocated : Node   12 =    21 MB
* Maximum dynamic memory allocated : Node   13 =    29 MB
* Maximum dynamic memory allocated : Node   14 =    36 MB
* Maximum dynamic memory allocated : Node   15 =    36 MB
* Maximum dynamic memory allocated : Node   16 =    36 MB
* Maximum dynamic memory allocated : Node   17 =    36 MB
* Maximum dynamic memory allocated : Node   18 =    32 MB
* Maximum dynamic memory allocated : Node   19 =    21 MB
* Maximum dynamic memory allocated : Node   20 =    21 MB
* Maximum dynamic memory allocated : Node   21 =    29 MB
* Maximum dynamic memory allocated : Node   22 =    36 MB
* Maximum dynamic memory allocated : Node   23 =    36 MB
* Maximum dynamic memory allocated : Node   24 =    36 MB
* Maximum dynamic memory allocated : Node   25 =    36 MB
* Maximum dynamic memory allocated : Node   26 =    33 MB
* Maximum dynamic memory allocated : Node   27 =    22 MB
* Maximum dynamic memory allocated : Node   28 =    21 MB
* Maximum dynamic memory allocated : Node   29 =    30 MB
* Maximum dynamic memory allocated : Node   30 =    36 MB
* Maximum dynamic memory allocated : Node   31 =    36 MB
* Maximum dynamic memory allocated : Node   32 =    36 MB
* Maximum dynamic memory allocated : Node   33 =    36 MB
* Maximum dynamic memory allocated : Node   34 =    35 MB
* Maximum dynamic memory allocated : Node   35 =    25 MB
* Maximum dynamic memory allocated : Node   36 =    21 MB
* Maximum dynamic memory allocated : Node   37 =    29 MB
* Maximum dynamic memory allocated : Node   38 =    35 MB
* Maximum dynamic memory allocated : Node   39 =    35 MB
* Maximum dynamic memory allocated : Node   40 =    35 MB
* Maximum dynamic memory allocated : Node   41 =    36 MB
* Maximum dynamic memory allocated : Node   42 =    36 MB
* Maximum dynamic memory allocated : Node   43 =    25 MB
* Maximum dynamic memory allocated : Node   44 =    20 MB
* Maximum dynamic memory allocated : Node   45 =    29 MB
* Maximum dynamic memory allocated : Node   46 =    35 MB
* Maximum dynamic memory allocated : Node   47 =    36 MB
* Maximum dynamic memory allocated : Node   48 =    35 MB
* Maximum dynamic memory allocated : Node   49 =    36 MB
* Maximum dynamic memory allocated : Node   50 =    34 MB
* Maximum dynamic memory allocated : Node   51 =    24 MB
* Maximum dynamic memory allocated : Node   52 =    21 MB
* Maximum dynamic memory allocated : Node   53 =    29 MB
* Maximum dynamic memory allocated : Node   54 =    35 MB
* Maximum dynamic memory allocated : Node   55 =    35 MB
* Maximum dynamic memory allocated : Node   56 =    36 MB
* Maximum dynamic memory allocated : Node   57 =    36 MB
* Maximum dynamic memory allocated : Node   58 =    32 MB
* Maximum dynamic memory allocated : Node   59 =    21 MB
* Maximum dynamic memory allocated : Node   60 =    20 MB
* Maximum dynamic memory allocated : Node   61 =    29 MB
* Maximum dynamic memory allocated : Node   62 =    35 MB
* Maximum dynamic memory allocated : Node   63 =    36 MB
* Maximum memory occured during matrixMtoO                    

timer: CPU execution times:
timer:  Routine       Calls   Time/call    Tot.time        %
timer:  siesta            1  114652.398  114652.398   100.00
timer:  Setup             1  251561.570  251561.570   219.41
timer:  bands             1       0.021       0.021     0.00
timer:  writewave         1       0.065       0.065     0.00
timer:  KSV_init          1       0.131       0.131     0.00
timer:  IterMD            5   22835.968  114179.839    99.59
timer:  hsparse           6      14.509      87.053     0.08
timer:  overfsm          10       4.867      48.670     0.04
timer:  IterSCF         100    1139.401  113940.057    99.38
timer:  kinefsm          10       4.515      45.149     0.04
timer:  nlefsm           10     128.123    1281.235     1.12
timer:  DHSCF           104     100.288   10429.942     9.10
timer:  DHSCF1            1       6.448       6.448     0.01
timer:  DHSCF2            1      94.500      94.500     0.08
timer:  REORD          1438       0.012      17.758     0.02
timer:  POISON          105       1.407     147.729     0.13
timer:  DHSCF3          104      96.052    9989.431     8.71
timer:  rhoofd          104      31.114    3235.878     2.82
timer:  CELLXC          104       0.501      52.102     0.05
timer:  vmat            100      39.995    3999.469     3.49
timer:  emtrans         100    1008.737  100873.713    87.98
timer:  NEGFK           600     151.969   91181.105    79.53
timer:  NEGFK_su        600      31.961   19176.741    16.73
timer:  NEGFK_imag      570      25.090   14301.101    12.47
timer:  NEGFK_real      474     101.927   48313.550    42.14
timer:  NEGFK_col       570       1.992    1135.207     0.99
timer:  DHSCF4            5      64.424     322.119     0.28
timer:  dfscf             5      55.457     277.285     0.24
timer:  CURRENT          30      22.160     664.789     0.58
  
>> End of run:  17-JAN-2024  12:17:16
