ATOMS
H             0.00000000      0.00000000     -0.00998254            -0.00000024      0.68020792     -0.19317656
H             0.00000000      0.00000000      0.73998166            -0.00000024      0.68020792     -0.19317656
