SIESTA 1.3.7  -- [1.3f1 release] (04 Feb 2004)
Architecture  : mpif90
Compiler flags:  -O3 -check bounds -fp-model strict
PARALLEL version

* Running on   64 nodes in parallel
>> Start of run:   3-NOV-2023  12:16:10

                           ***********************       
                           *  WELCOME TO SIESTA  *       
                           ***********************       

reinit: Reading from standard input
************************** Dump of input data file ****************************
SystemName		    Bulk transport		# Descriptive name of the system
SystemLabel 			bulk		# Short name for naming files
NumberOfAtoms    32
NumberOfSpecies			1               # Number of species
PAO.BasisType			split		# Type of basis ('nones', 'nonodes', 'split')
%block ChemicalSpeciesLabel
1 79 Au
%endblock ChemicalSpeciesLabel
%block PAO.Basis
  Au  2
n=6  0  1
6.500
1.00
n=5  2  1
5.850
1.00
%endblock PAO.Basis
%block PS.lmax
 Au   3
%endblock PS.lmax
LatticeConstant 1.000 Ang
%block LatticeVectors
  8.336     0.000   0.000	  1
  0.000   8.336    0.000   1
  0.000   0.000      8.336  1
%endblock LatticeVectors
AtomicCoordinatesFormat Ang
%block AtomicCoordinatesAndAtomicSpecies
0.0 0.0 0.0 1 Au
0.0 4.168 0.0 1 Au
2.084 2.084 0.0 1 Au
2.084 6.252 0.0 1 Au
4.168 0.0 0.0 1 Au
4.168 4.168 0.0 1 Au
6.252 2.084 0.0 1 Au
6.252 6.252 0.0 1 Au
0.0 2.084 2.084 1 Au
0.0 6.252 2.084 1 Au
2.084 0.0 2.084 1 Au
2.084 4.168 2.084 1 Au
4.168 2.084 2.084 1 Au
4.168 6.252 2.084 1 Au
6.252 0.0 2.084 1 Au
6.252 4.168 2.084 1 Au
0.0 0.0 4.168 1 Au
0.0 4.168 4.168 1 Au
2.084 2.084 4.168 1 Au
2.084 6.252 4.168 1 Au
4.168 0.0 4.168 1 Au
4.168 4.168 4.168 1 Au
6.252 2.084 4.168 1 Au
6.252 6.252 4.168 1 Au
0.0 2.084 6.252 1 Au
0.0 6.252 6.252 1 Au
2.084 0.0 6.252 1 Au
2.084 4.168 6.252 1 Au
4.168 2.084 6.252 1 Au
4.168 6.252 6.252 1 Au
6.252 0.0 6.252 1 Au
6.252 4.168 6.252 1 Au
%endblock AtomicCoordinatesAndAtomicSpecies 	
%block kgrid_Monkhorst_Pack
  2   0   0     0.0
  0   2   0     0.0
  0   0   20    0.0
%endblock kgrid_Monkhorst_Pack
xc.functional		LDA		# 'LDA', 'GGA'
xc.authors 	 		CA		# 'CA'='PZ', 'PW92', 'PBE'
SpinPolarized			F		# 'T', 'F'		
#FixSpin           F
#TotalSpin        0.0
NonCollinearSpin		F		# 'T', 'F'
MeshCutoff 	 		    200 Ry		# Equivalent plane wave cutoff for the grid
MaxSCFIterations		10000
DM.MixingWeight			0.1
DM.NumberPulay			4	# Pulay convergency accelerator
DM.PulayOnFile			F		# Store in memory ('F') or in files ('T')
#DM.NumberKick         30
#DM.KickMixingWeight   0.1
DM.Tolerance 		0.5E-5
NeglNonOverlapInt		F		# 'F'=do not neglect
SolutionMethod			diagon
ElectronicTemperature		300 K		# Default value
DM.UseSaveDM 			T
#MD.UseSaveXV			T
#MD.UseSaveCG			T
WriteForces      T
WriteCoorXmol			T		# Write Atoms coordinates
SaveElectrostaticPotential      T
#SaveHS				T		# Save the Hamiltonian and Overlap matrices
SaveRho				T		# Save the valence pseudocharge density
#SaveDeltaRho			T
#WriteDenchar			T		# Write Denchar output
WriteMullikenPop		1 #write mulliken population of aromic and orbital charges
#-----
#smeagol
#-----
BulkTransport			T
BulkLeads			LR
************************** End of input data file *****************************

reinit: -----------------------------------------------------------------------
reinit: System Name: Bulk transport                                             
reinit: -----------------------------------------------------------------------
reinit: System Label: bulk                
reinit: -----------------------------------------------------------------------

initatom: Reading input for the pseudopotentials and atomic orbitals ----------
 Species number:            1  Label: Au Atomic number:          79
Ground state valence configuration:   6s01  5d10
Reading pseudopotential information in formatted form from Au.psf
relmxkb: Read Max KB Ang. Momentum=    3 for species Au
 Warning: Empty PAO shell. l =           1
 Will have a KB projector anyway...

<basis_specs>
===============================================================================
Au                   Z=  79    Mass=  196.97        Charge=  0.0000    
Lmxo=2 Lmxkb=3     BasisType=split      Semic=F
L=0  Nsemic=0  Cnfigmx=6
          n=1  nzeta=1  polorb=0
               vcte:    0.0000    
               rinn:    0.0000    
                rcs:    6.5000    
            lambdas:    1.0000    
L=1  Nsemic=0  Cnfigmx=6
L=2  Nsemic=0  Cnfigmx=5
          n=1  nzeta=1  polorb=0
               vcte:    0.0000    
               rinn:    0.0000    
                rcs:    5.8500    
            lambdas:    1.0000    
-------------------------------------------------------------------------------
L=0  Nkbl=1  erefs: 0.17977+309
L=1  Nkbl=1  erefs: 0.17977+309
L=2  Nkbl=1  erefs: 0.17977+309
L=3  Nkbl=1  erefs: 0.17977+309
===============================================================================
</basis_specs>

atom: Called for Au  (Z =  79)

read_vps: Pseudopotential generation method:
read_vps: ATM3      Troullier-Martins                       

read_vps: Pseudopotential generated from a relativistic atomic calculation
read_vps: There are spin-orbit pseudopotentials available

read_vps: Valence configuration (pseudopotential and basis set generation):
6s( 1.00) rc: 2.18
6p( 0.00) rc: 2.47
5d(10.00) rc: 1.79
5f( 0.00) rc: 2.00
Total valence charge:   11.00000

read_vps: Pseudopotential includes a core correction:
read_vps: Pseudo-core for xc-correction
comcore: Pseudo-core radius Rcore=  4.027091

xc_check: Exchange-correlation functional:
xc_check: Ceperley-Alder
V l=0 = -2*Zval/r beyond r=  2.9833
V l=1 = -2*Zval/r beyond r=  2.9833
V l=2 = -2*Zval/r beyond r=  2.9833
V l=3 = -2*Zval/r beyond r=  2.9833
All V_l potentials equal beyond r=  2.4425
This should be close to max(r_c) in ps generation
All pots = -2*Zval/r beyond r=  2.9833

VLOCAL1: 99.0% of the norm of Vloc inside      7.276 Ry
VLOCAL1: 99.9% of the norm of Vloc inside     16.582 Ry
atom: Maximum radius for 4*pi*r*r*local-pseudopot. charge    2.94627
atom: Maximum radius for r*vlocal+2*Zval:    2.60007
GHOST: No ghost state for L =  0
GHOST: No ghost state for L =  1
GHOST: No ghost state for L =  2
GHOST: No ghost state for L =  3

KBgen: Kleinman-Bylander projectors: 
   l= 0   rc=  3.175745   el= -0.445638   Ekb=  5.072790   kbcos=  0.276607
   l= 1   rc=  3.256140   el= -0.066324   Ekb=  2.703235   kbcos=  0.227171
   l= 2   rc=  3.020861   el= -0.526103   Ekb= -4.704026   kbcos= -0.643795
   l= 3   rc=  3.466145   el=  0.003438   Ekb= -2.516122   kbcos= -0.010529

KBgen: Total number of  Kleinman-Bylander projectors:   16
atom: -------------------------------------------------------------------------

atom: SANKEY-TYPE ORBITALS:

SPLIT: Orbitals with angular momentum L= 0

SPLIT: Basis orbitals for state 6s

   izeta = 1
                 lambda =    1.000000
                     rc =    6.557093
                 energy =   -0.435455
                kinetic =    0.389259
    potential(screened) =   -0.824714
       potential(ionic) =   -8.467175

SPLIT: Orbitals with angular momentum L= 2

SPLIT: Basis orbitals for state 5d

   izeta = 1
                 lambda =    1.000000
                     rc =    5.933100
                 energy =   -0.524775
                kinetic =    4.913203
    potential(screened) =   -5.437978
       potential(ionic) =  -15.883506
atom: Total number of Sankey-type orbitals:  6

atm_pop: Valence configuration(local Pseudopot. screening):
 6s( 1.00)                                                            
 6p( 0.00)                                                            
 5d(10.00)                                                            
Vna: chval, zval:   11.00000  11.00000

Vna:  Cut-off radius for the neutral-atom potential:   6.557093

atom: _________________________________________________________________________

prinput: Basis input ----------------------------------------------------------

PAO.BasisType split     

%block ChemicalSpeciesLabel
    1   79 Au                      # Species index, atomic number, species label
%endblock ChemicalSpeciesLabel

%block PAO.Basis                 # Define Basis set
Au          2                    # Species label, number of l-shells
 n=6   0   1                         # n, l, Nzeta 
   6.557   
   1.000   
 n=5   2   1                         # n, l, Nzeta 
   5.933   
   1.000   
%endblock PAO.Basis

prinput: ----------------------------------------------------------------------


siesta: ******************** Simulation parameters ****************************
siesta:
siesta: The following are some of the parameters of the simulation.
siesta: A complete list of the parameters used, including defect values,
siesta: can be found in file out.fdf
siesta:
coor:   Atomic-coordinates input format  =     Cartesian coordinates
coor:                                          (in Angstroms)
redata: Number of spin components        =     1
redata: SpinOrbit                        =     0
redata: Long output                      =     F
redata: Number of Atomic Species         =     1
redata: Charge density info will appear in .RHO file
redata: Write Mulliken Pop.              =     Atomic and Orbital charges
redata: Write Hamilton Pop.              =     NO
redata: Mesh Cutoff                      =   200.0000  Ry
redata: Net charge of the system         =     0.0000 |e|
redata: Max. number of SCF Iter          = 10000
redata: One Pulay mixing every           =     4 iterations
redata: Mix DM in first SCF step ?       =     F
redata: Write Pulay info on disk?        =     F
redata: New DM Mixing Weight             =     0.1000
redata: No kicks to SCF
redata: DM Mixing Weight for Kicks       =     0.5000
redata: DM Tolerance for SCF             =     0.000005
redata: Use continuation files for DM    =     T
redata: Neglect nonoverlap interactions  =     F
redata: Method of Calculation            =     Diagonalization
redata: Divide and Conquer               =     F
redata: Electronic Temperature           =     0.0019  Ry
redata: Fix the spin of the system       =     F
redata: Dynamics option                  =     CG coord. optimization
redata: Variable cell                    =     F
redata: Use continuation files for CG    =     F
redata: Maximum number of CG moves       =     0
redata: Max atomic displ per move        =     0.2000  Bohr
redata: Force tolerance                  =     0.0016  Ry/Bohr
redata: ***********************************************************************

siesta: Atomic coordinates (Bohr) and species
siesta:      0.00000   0.00000   0.00000  1        1
siesta:      0.00000   7.87638   0.00000  1        2
siesta:      3.93819   3.93819   0.00000  1        3
siesta:      3.93819  11.81457   0.00000  1        4
siesta:      7.87638   0.00000   0.00000  1        5
siesta:      7.87638   7.87638   0.00000  1        6
siesta:     11.81457   3.93819   0.00000  1        7
siesta:     11.81457  11.81457   0.00000  1        8
siesta:      0.00000   3.93819   3.93819  1        9
siesta:      0.00000  11.81457   3.93819  1       10
siesta:      3.93819   0.00000   3.93819  1       11
siesta:      3.93819   7.87638   3.93819  1       12
siesta:      7.87638   3.93819   3.93819  1       13
siesta:      7.87638  11.81457   3.93819  1       14
siesta:     11.81457   0.00000   3.93819  1       15
siesta:     11.81457   7.87638   3.93819  1       16
siesta:      0.00000   0.00000   7.87638  1       17
siesta:      0.00000   7.87638   7.87638  1       18
siesta:      3.93819   3.93819   7.87638  1       19
siesta:      3.93819  11.81457   7.87638  1       20
siesta:      7.87638   0.00000   7.87638  1       21
siesta:      7.87638   7.87638   7.87638  1       22
siesta:     11.81457   3.93819   7.87638  1       23
siesta:     11.81457  11.81457   7.87638  1       24
siesta:      0.00000   3.93819  11.81457  1       25
siesta:      0.00000  11.81457  11.81457  1       26
siesta:      3.93819   0.00000  11.81457  1       27
siesta:      3.93819   7.87638  11.81457  1       28
siesta:      7.87638   3.93819  11.81457  1       29
siesta:      7.87638  11.81457  11.81457  1       30
siesta:     11.81457   0.00000  11.81457  1       31
siesta:     11.81457   7.87638  11.81457  1       32

initatomlists: Number of atoms, orbitals, and projectors:     32   192   512

siesta: System type = bulk      
 Nodes, Orbitals          64         192
 blocksizedefault           2

* ProcessorY, Blocksize:    8   2


siesta: k-grid: Number of k-points =    44
siesta: k-grid: Cutoff             =     8.336 Ang
siesta: k-grid: Supercell and displacements
siesta: k-grid:    2   0   0      0.000
siesta: k-grid:    0   2   0      0.000
siesta: k-grid:    0   0  20      0.000
siesta: overlap:  rmaxh   veclen  direction
siesta: overlap:  20.0465 15.7528   1
siesta: overlap:  rmaxh   veclen  direction
siesta: overlap:  20.0465 15.7528   2
siesta: overlap:  rmaxh   veclen  direction
siesta: overlap:  20.0465 15.7528   3
 label:           1 Au                             1 s      
 label:           2 Au                             1 dxy    
 label:           3 Au                             1 dyz    
 label:           4 Au                             1 dz2    
 label:           5 Au                             1 dxz    
 label:           6 Au                             1 dx2-y2 
 label:           7 Au                             2 s      
 label:           8 Au                             2 dxy    
 label:           9 Au                             2 dyz    
 label:          10 Au                             2 dz2    
 label:          11 Au                             2 dxz    
 label:          12 Au                             2 dx2-y2 
 label:          13 Au                             3 s      
 label:          14 Au                             3 dxy    
 label:          15 Au                             3 dyz    
 label:          16 Au                             3 dz2    
 label:          17 Au                             3 dxz    
 label:          18 Au                             3 dx2-y2 
 label:          19 Au                             4 s      
 label:          20 Au                             4 dxy    
 label:          21 Au                             4 dyz    
 label:          22 Au                             4 dz2    
 label:          23 Au                             4 dxz    
 label:          24 Au                             4 dx2-y2 
 label:          25 Au                             5 s      
 label:          26 Au                             5 dxy    
 label:          27 Au                             5 dyz    
 label:          28 Au                             5 dz2    
 label:          29 Au                             5 dxz    
 label:          30 Au                             5 dx2-y2 
 label:          31 Au                             6 s      
 label:          32 Au                             6 dxy    
 label:          33 Au                             6 dyz    
 label:          34 Au                             6 dz2    
 label:          35 Au                             6 dxz    
 label:          36 Au                             6 dx2-y2 
 label:          37 Au                             7 s      
 label:          38 Au                             7 dxy    
 label:          39 Au                             7 dyz    
 label:          40 Au                             7 dz2    
 label:          41 Au                             7 dxz    
 label:          42 Au                             7 dx2-y2 
 label:          43 Au                             8 s      
 label:          44 Au                             8 dxy    
 label:          45 Au                             8 dyz    
 label:          46 Au                             8 dz2    
 label:          47 Au                             8 dxz    
 label:          48 Au                             8 dx2-y2 
 label:          49 Au                             9 s      
 label:          50 Au                             9 dxy    
 label:          51 Au                             9 dyz    
 label:          52 Au                             9 dz2    
 label:          53 Au                             9 dxz    
 label:          54 Au                             9 dx2-y2 
 label:          55 Au                            10 s      
 label:          56 Au                            10 dxy    
 label:          57 Au                            10 dyz    
 label:          58 Au                            10 dz2    
 label:          59 Au                            10 dxz    
 label:          60 Au                            10 dx2-y2 
 label:          61 Au                            11 s      
 label:          62 Au                            11 dxy    
 label:          63 Au                            11 dyz    
 label:          64 Au                            11 dz2    
 label:          65 Au                            11 dxz    
 label:          66 Au                            11 dx2-y2 
 label:          67 Au                            12 s      
 label:          68 Au                            12 dxy    
 label:          69 Au                            12 dyz    
 label:          70 Au                            12 dz2    
 label:          71 Au                            12 dxz    
 label:          72 Au                            12 dx2-y2 
 label:          73 Au                            13 s      
 label:          74 Au                            13 dxy    
 label:          75 Au                            13 dyz    
 label:          76 Au                            13 dz2    
 label:          77 Au                            13 dxz    
 label:          78 Au                            13 dx2-y2 
 label:          79 Au                            14 s      
 label:          80 Au                            14 dxy    
 label:          81 Au                            14 dyz    
 label:          82 Au                            14 dz2    
 label:          83 Au                            14 dxz    
 label:          84 Au                            14 dx2-y2 
 label:          85 Au                            15 s      
 label:          86 Au                            15 dxy    
 label:          87 Au                            15 dyz    
 label:          88 Au                            15 dz2    
 label:          89 Au                            15 dxz    
 label:          90 Au                            15 dx2-y2 
 label:          91 Au                            16 s      
 label:          92 Au                            16 dxy    
 label:          93 Au                            16 dyz    
 label:          94 Au                            16 dz2    
 label:          95 Au                            16 dxz    
 label:          96 Au                            16 dx2-y2 
 label:          97 Au                            17 s      
 label:          98 Au                            17 dxy    
 label:          99 Au                            17 dyz    
 label:         100 Au                            17 dz2    
 label:         101 Au                            17 dxz    
 label:         102 Au                            17 dx2-y2 
 label:         103 Au                            18 s      
 label:         104 Au                            18 dxy    
 label:         105 Au                            18 dyz    
 label:         106 Au                            18 dz2    
 label:         107 Au                            18 dxz    
 label:         108 Au                            18 dx2-y2 
 label:         109 Au                            19 s      
 label:         110 Au                            19 dxy    
 label:         111 Au                            19 dyz    
 label:         112 Au                            19 dz2    
 label:         113 Au                            19 dxz    
 label:         114 Au                            19 dx2-y2 
 label:         115 Au                            20 s      
 label:         116 Au                            20 dxy    
 label:         117 Au                            20 dyz    
 label:         118 Au                            20 dz2    
 label:         119 Au                            20 dxz    
 label:         120 Au                            20 dx2-y2 
 label:         121 Au                            21 s      
 label:         122 Au                            21 dxy    
 label:         123 Au                            21 dyz    
 label:         124 Au                            21 dz2    
 label:         125 Au                            21 dxz    
 label:         126 Au                            21 dx2-y2 
 label:         127 Au                            22 s      
 label:         128 Au                            22 dxy    
 label:         129 Au                            22 dyz    
 label:         130 Au                            22 dz2    
 label:         131 Au                            22 dxz    
 label:         132 Au                            22 dx2-y2 
 label:         133 Au                            23 s      
 label:         134 Au                            23 dxy    
 label:         135 Au                            23 dyz    
 label:         136 Au                            23 dz2    
 label:         137 Au                            23 dxz    
 label:         138 Au                            23 dx2-y2 
 label:         139 Au                            24 s      
 label:         140 Au                            24 dxy    
 label:         141 Au                            24 dyz    
 label:         142 Au                            24 dz2    
 label:         143 Au                            24 dxz    
 label:         144 Au                            24 dx2-y2 
 label:         145 Au                            25 s      
 label:         146 Au                            25 dxy    
 label:         147 Au                            25 dyz    
 label:         148 Au                            25 dz2    
 label:         149 Au                            25 dxz    
 label:         150 Au                            25 dx2-y2 
 label:         151 Au                            26 s      
 label:         152 Au                            26 dxy    
 label:         153 Au                            26 dyz    
 label:         154 Au                            26 dz2    
 label:         155 Au                            26 dxz    
 label:         156 Au                            26 dx2-y2 
 label:         157 Au                            27 s      
 label:         158 Au                            27 dxy    
 label:         159 Au                            27 dyz    
 label:         160 Au                            27 dz2    
 label:         161 Au                            27 dxz    
 label:         162 Au                            27 dx2-y2 
 label:         163 Au                            28 s      
 label:         164 Au                            28 dxy    
 label:         165 Au                            28 dyz    
 label:         166 Au                            28 dz2    
 label:         167 Au                            28 dxz    
 label:         168 Au                            28 dx2-y2 
 label:         169 Au                            29 s      
 label:         170 Au                            29 dxy    
 label:         171 Au                            29 dyz    
 label:         172 Au                            29 dz2    
 label:         173 Au                            29 dxz    
 label:         174 Au                            29 dx2-y2 
 label:         175 Au                            30 s      
 label:         176 Au                            30 dxy    
 label:         177 Au                            30 dyz    
 label:         178 Au                            30 dz2    
 label:         179 Au                            30 dxz    
 label:         180 Au                            30 dx2-y2 
 label:         181 Au                            31 s      
 label:         182 Au                            31 dxy    
 label:         183 Au                            31 dyz    
 label:         184 Au                            31 dz2    
 label:         185 Au                            31 dxz    
 label:         186 Au                            31 dx2-y2 
 label:         187 Au                            32 s      
 label:         188 Au                            32 dxy    
 label:         189 Au                            32 dyz    
 label:         190 Au                            32 dz2    
 label:         191 Au                            32 dxz    
 label:         192 Au                            32 dx2-y2 

superc: Internal auxiliary supercell:     3 x     3 x     3  =      27
superc: Number of atoms, orbitals, and projectors:    864  5184 13824
 
* Maximum dynamic memory allocated =     1 MB

siesta:                 ==============================
                            Begin CG move =      0
                        ==============================

superc: Internal auxiliary supercell:     3 x     3 x     3  =      27
superc: Number of atoms, orbitals, and projectors:    864  5184 13824

read_ldau The LDA+U method used is from Czyzky PRB 49 14211
 NSCOBlocks=           0

InitMesh: MESH =    72 x    72 x    72 =      373248
InitMesh: Mesh cutoff (required, used) =   200.000   206.182 Ry
 
* Maximum dynamic memory allocated =    17 MB
cdiag: going 2D with      8 by      8 proc- grid

stepf: Fermi-Dirac step function
 Diagonalisation failed to converged
 Memory factor increased to    3.00000000000000     
Node      1 reported insufficient diagmemory.
Node      2 reported insufficient diagmemory.
Node      3 reported insufficient diagmemory.
Node      4 reported insufficient diagmemory.
Node      5 reported insufficient diagmemory.
Node      6 reported insufficient diagmemory.
Node      7 reported insufficient diagmemory.
Node      8 reported insufficient diagmemory.
Node      9 reported insufficient diagmemory.
Node     10 reported insufficient diagmemory.
Node     11 reported insufficient diagmemory.
Node     12 reported insufficient diagmemory.
Node     13 reported insufficient diagmemory.
Node     14 reported insufficient diagmemory.
Node     15 reported insufficient diagmemory.
Node     16 reported insufficient diagmemory.
Node     17 reported insufficient diagmemory.
Node     18 reported insufficient diagmemory.
Node     19 reported insufficient diagmemory.
Node     20 reported insufficient diagmemory.
Node     21 reported insufficient diagmemory.
Node     22 reported insufficient diagmemory.
Node     23 reported insufficient diagmemory.
Node     24 reported insufficient diagmemory.
Node     25 reported insufficient diagmemory.
Node     26 reported insufficient diagmemory.
Node     27 reported insufficient diagmemory.
Node     28 reported insufficient diagmemory.
Node     29 reported insufficient diagmemory.
Node     30 reported insufficient diagmemory.
Node     31 reported insufficient diagmemory.
Node     32 reported insufficient diagmemory.
Node     33 reported insufficient diagmemory.
Node     34 reported insufficient diagmemory.
Node     35 reported insufficient diagmemory.
Node     36 reported insufficient diagmemory.
Node     37 reported insufficient diagmemory.
Node     38 reported insufficient diagmemory.
Node     39 reported insufficient diagmemory.
Node     40 reported insufficient diagmemory.
Node     41 reported insufficient diagmemory.
Node     42 reported insufficient diagmemory.
Node     43 reported insufficient diagmemory.
Node     44 reported insufficient diagmemory.
Node     45 reported insufficient diagmemory.
Node     46 reported insufficient diagmemory.
Node     47 reported insufficient diagmemory.
Node     48 reported insufficient diagmemory.
Node     49 reported insufficient diagmemory.
Node     50 reported insufficient diagmemory.
Node     51 reported insufficient diagmemory.
Node     52 reported insufficient diagmemory.
Node     53 reported insufficient diagmemory.
Node     54 reported insufficient diagmemory.
Node     55 reported insufficient diagmemory.
Node     56 reported insufficient diagmemory.
Node     57 reported insufficient diagmemory.
Node     58 reported insufficient diagmemory.
Node     59 reported insufficient diagmemory.
Node     60 reported insufficient diagmemory.
Node     61 reported insufficient diagmemory.
Node     62 reported insufficient diagmemory.
Node     63 reported insufficient diagmemory.
Node     64 reported insufficient diagmemory.

siesta: Program's energy decomposition (eV):
siesta: Eions   =     38560.014795
siesta: Ena     =      2136.575093
siesta: Ekin    =     21561.171304
siesta: Enl     =     -8293.747949
siesta: DEna    =         0.000008
siesta: DUscf   =         0.000000
siesta: DUext   =         0.000000
siesta: Exc     =    -13379.012104
siesta: eta*DQ  =         0.000000
siesta: Emadel  =         0.000000
siesta: Eharris =    -36478.422977
siesta: Eso     =         0.000000
siesta: Etot    =    -36535.028442
siesta: FreeEng =    -36535.028442

siesta: iscf   Eharris(eV)      E_KS(eV)   FreeEng(eV)     dDmax   Ef(eV)
siesta:    1   -36478.4230   -36535.0284   -36535.0284   0.16275  -2.4314
timer: Routine,Calls,Time,% = IterSCF        1     517.064  96.43
siesta:    2   -36478.3208   -36478.3028   -36478.3212   0.01257  -2.5306
siesta:    3   -36478.3199   -36478.5832   -36478.6018   0.01027  -2.5287
siesta:    4   -36478.3189   -36478.3178   -36478.3364   0.00006  -2.5179
siesta:    5   -36478.3189   -36478.3176   -36478.3361   0.00004  -2.5178
siesta:    6   -36478.3193   -36478.3193   -36478.3378   0.00000  -2.5178

siesta: E_KS(eV) =           -36478.3193

siesta: E_KS - E_eggbox =    -36478.3193

siesta: Atomic forces (eV/Ang):
     1    0.000022    0.000036    0.000043
     2    0.000031    0.007623    0.000036
     3    0.005409    0.005392    0.000033
     4    0.007632    0.000005    0.000023
     5    0.007635    0.000027    0.000045
     6    0.005406    0.005390    0.000038
     7    0.000014    0.007626    0.000039
     8    0.000005    0.000005    0.000017
     9    0.000038    0.005393    0.005415
    10    0.000015    0.000005    0.007631
    11    0.005402    0.000034    0.005425
    12    0.003123    0.006227    0.003143
    13    0.006237    0.003112    0.003142
    14    0.006823    0.000008    0.003422
    15    0.000006    0.000039    0.007646
    16    0.000015    0.006819    0.003428
    17    0.000032    0.000040    0.007650
    18    0.000040    0.005392    0.005415
    19    0.003128    0.003112    0.006256
    20    0.003413    0.000005    0.006835
    21    0.005401    0.000035    0.005423
    22    0.004415    0.004401    0.004433
    23    0.000019    0.003412    0.006842
    24   -0.000001    0.000001    0.007627
    25    0.000028    0.007626    0.000023
    26    0.000007    0.000003    0.000006
    27    0.007636    0.000023    0.000033
    28    0.003422    0.006820    0.000030
    29    0.006836    0.003408    0.000030
    30    0.007628    0.000008    0.000015
    31    0.000004    0.000027    0.000018
    32    0.000017    0.007626    0.000022
----------------------------------------
 Tot    0.089838    0.089680    0.090185
----------------------------------------
 Max    0.007650
 Res    0.004125    sqrt( Sum f_i^2 / 3N )
----------------------------------------
 Max    0.007650    constrained
 
mulliken: Atomic and Orbital Populations:

Species: Au                  
Atom  Qatom  Qorb
               6s      5dxy    5dyz    5dz2    5dxz    5dx2-y2 
   1 11.000   1.221   1.943   1.943   1.975   1.943   1.975
   2 11.000   1.221   1.943   1.943   1.975   1.943   1.975
   3 11.000   1.221   1.943   1.943   1.975   1.943   1.975
   4 11.000   1.221   1.943   1.943   1.975   1.943   1.975
   5 11.000   1.221   1.943   1.943   1.975   1.943   1.975
   6 11.000   1.221   1.943   1.943   1.975   1.943   1.975
   7 11.000   1.221   1.943   1.943   1.975   1.943   1.975
   8 11.000   1.221   1.943   1.943   1.975   1.943   1.975
   9 11.000   1.221   1.943   1.943   1.975   1.943   1.975
  10 11.000   1.221   1.943   1.943   1.975   1.943   1.975
  11 11.000   1.221   1.943   1.943   1.975   1.943   1.975
  12 11.000   1.221   1.943   1.943   1.975   1.943   1.975
  13 11.000   1.221   1.943   1.943   1.975   1.943   1.975
  14 11.000   1.221   1.943   1.943   1.975   1.943   1.975
  15 11.000   1.221   1.943   1.943   1.975   1.943   1.975
  16 11.000   1.221   1.943   1.943   1.975   1.943   1.975
  17 11.000   1.221   1.943   1.943   1.975   1.943   1.975
  18 11.000   1.221   1.943   1.943   1.975   1.943   1.975
  19 11.000   1.221   1.943   1.943   1.975   1.943   1.975
  20 11.000   1.221   1.943   1.943   1.975   1.943   1.975
  21 11.000   1.221   1.943   1.943   1.975   1.943   1.975
  22 11.000   1.221   1.943   1.943   1.975   1.943   1.975
  23 11.000   1.221   1.943   1.943   1.975   1.943   1.975
  24 11.000   1.221   1.943   1.943   1.975   1.943   1.975
  25 11.000   1.221   1.943   1.943   1.975   1.943   1.975
  26 11.000   1.221   1.943   1.943   1.975   1.943   1.975
  27 11.000   1.221   1.943   1.943   1.975   1.943   1.975
  28 11.000   1.221   1.943   1.943   1.975   1.943   1.975
  29 11.000   1.221   1.943   1.943   1.975   1.943   1.975
  30 11.000   1.221   1.943   1.943   1.975   1.943   1.975
  31 11.000   1.221   1.943   1.943   1.975   1.943   1.975
  32 11.000   1.221   1.943   1.943   1.975   1.943   1.975

mulliken: Qtot =  352.000
 
* Maximum dynamic memory allocated =    18 MB

coxmol: Writing XMOL coordinates into file bulk.xyz                

siesta: Eigenvalues (eV):
  ik is    eps
   1  1 -13.11 -10.83 -10.83 -10.83 -10.83 -10.83 -10.83 -10.38 -10.38 -10.38
        -10.38 -10.06 -10.05 -10.05  -9.62  -9.62  -9.62  -9.24  -9.24  -9.24
         -9.24  -9.24  -9.24  -9.24  -9.24  -9.23  -9.23  -9.23  -9.23  -8.75
         -8.75  -8.75  -8.75  -8.75  -8.75  -8.69  -8.69  -8.69  -8.69  -8.68
         -8.68  -8.02  -8.02  -8.02  -8.02  -8.02  -8.02  -8.02  -8.02  -8.02
         -8.02  -8.02  -8.02  -7.85  -7.85  -7.85  -7.85  -7.85  -7.85  -7.85
         -7.85  -7.85  -7.85  -7.85  -7.85  -7.68  -7.68  -7.68  -7.68  -7.68
         -7.68  -7.68  -7.68  -7.68  -7.68  -7.68  -7.68  -7.63  -7.63  -7.63
         -7.63  -7.63  -7.63  -7.63  -7.63  -7.58  -7.58  -7.58  -6.99  -6.99
         -6.98  -6.98  -6.98  -6.98  -6.69  -6.69  -6.69  -6.69  -6.69  -6.69
         -6.69  -6.69  -6.68  -6.68  -6.68  -6.68  -6.35  -6.35  -6.35  -6.35
         -6.35  -6.35  -6.35  -6.35  -6.35  -6.35  -6.35  -6.35  -6.28  -6.28
         -6.27  -6.27  -6.27  -6.27  -6.09  -6.09  -6.09  -6.09  -6.09  -6.09
         -6.08  -6.08  -6.08  -6.08  -6.08  -6.08  -6.08  -6.08  -5.55  -5.55
         -5.55  -5.55  -5.54  -5.54  -4.96  -4.96  -4.96  -4.92  -4.92  -4.92
         -4.92  -4.92  -4.92  -4.92  -4.92  -4.60  -4.60  -4.60  -4.60  -4.60
         -4.60  -4.60  -4.60  -4.60  -4.60  -4.60  -4.60  -3.38  -3.38  -3.38
         -3.38  -3.38  -3.38  -3.38  -3.38  -3.37  -3.37  -3.37  -3.37  -0.55
         -0.55  -0.55  -0.55   1.39   1.39   1.39   1.39   1.39   1.39   2.16
          2.16   2.16
   2  1 -12.47 -12.47 -10.31 -10.31 -10.31 -10.31 -10.31 -10.31 -10.31 -10.31
        -10.01 -10.01 -10.01 -10.01 -10.01 -10.01 -10.01 -10.01  -9.94  -9.94
         -9.54  -9.54  -9.54  -9.54  -9.36  -9.36  -9.20  -9.20  -9.19  -9.19
         -8.61  -8.61  -8.61  -8.61  -8.60  -8.60  -8.60  -8.60  -8.47  -8.47
         -8.47  -8.47  -8.46  -8.46  -8.46  -8.46  -8.11  -8.11  -8.11  -8.11
         -8.11  -8.11  -8.11  -8.11  -7.93  -7.93  -7.85  -7.85  -7.85  -7.85
         -7.85  -7.85  -7.85  -7.85  -7.77  -7.77  -7.77  -7.77  -7.77  -7.77
         -7.77  -7.77  -7.54  -7.54  -7.54  -7.54  -7.54  -7.54  -7.54  -7.54
         -7.31  -7.31  -7.31  -7.31  -7.31  -7.31  -7.31  -7.31  -7.26  -7.26
         -7.26  -7.26  -6.46  -6.46  -6.35  -6.35  -6.35  -6.35  -6.35  -6.35
         -6.35  -6.35  -6.30  -6.30  -6.30  -6.30  -6.29  -6.29  -6.29  -6.29
         -6.16  -6.16  -6.16  -6.16  -6.16  -6.16  -6.16  -6.16  -5.94  -5.94
         -5.91  -5.91  -5.91  -5.91  -5.91  -5.91  -5.91  -5.91  -5.80  -5.80
         -5.80  -5.80  -5.48  -5.48  -5.47  -5.47  -5.35  -5.35  -5.35  -5.35
         -5.35  -5.35  -5.35  -5.35  -5.19  -5.19  -5.19  -5.19  -5.19  -5.19
         -5.19  -5.19  -5.19  -5.19  -5.18  -5.18  -5.14  -5.14  -4.87  -4.87
         -4.87  -4.87  -4.87  -4.87  -4.87  -4.87  -4.60  -4.60  -4.60  -4.60
         -4.56  -4.56  -2.70  -2.70  -2.70  -2.70  -2.70  -2.70  -2.70  -2.70
         -0.86  -0.86  -0.86  -0.86  -0.86  -0.86  -0.86  -0.86   1.78   1.78
          1.78   1.78
   3  1 -12.47 -12.47 -10.31 -10.31 -10.31 -10.31 -10.31 -10.31 -10.31 -10.31
        -10.01 -10.01 -10.01 -10.01 -10.01 -10.01 -10.01 -10.01  -9.94  -9.94
         -9.54  -9.54  -9.54  -9.54  -9.36  -9.36  -9.20  -9.20  -9.19  -9.19
         -8.61  -8.61  -8.61  -8.61  -8.60  -8.60  -8.60  -8.60  -8.47  -8.47
         -8.47  -8.47  -8.46  -8.46  -8.46  -8.46  -8.11  -8.11  -8.11  -8.11
         -8.11  -8.11  -8.11  -8.11  -7.93  -7.93  -7.85  -7.85  -7.85  -7.85
         -7.85  -7.85  -7.85  -7.85  -7.77  -7.77  -7.77  -7.77  -7.77  -7.77
         -7.77  -7.77  -7.54  -7.54  -7.54  -7.54  -7.54  -7.54  -7.54  -7.54
         -7.31  -7.31  -7.31  -7.31  -7.31  -7.31  -7.31  -7.31  -7.26  -7.26
         -7.26  -7.26  -6.46  -6.46  -6.35  -6.35  -6.35  -6.35  -6.35  -6.35
         -6.35  -6.35  -6.30  -6.30  -6.30  -6.30  -6.29  -6.29  -6.29  -6.29
         -6.16  -6.16  -6.16  -6.16  -6.16  -6.16  -6.16  -6.16  -5.94  -5.94
         -5.91  -5.91  -5.91  -5.91  -5.91  -5.91  -5.91  -5.91  -5.80  -5.80
         -5.80  -5.80  -5.48  -5.48  -5.47  -5.47  -5.35  -5.35  -5.35  -5.35
         -5.35  -5.35  -5.35  -5.35  -5.19  -5.19  -5.19  -5.19  -5.19  -5.19
         -5.19  -5.19  -5.19  -5.19  -5.18  -5.18  -5.14  -5.14  -4.87  -4.87
         -4.87  -4.87  -4.87  -4.87  -4.87  -4.87  -4.60  -4.60  -4.60  -4.60
         -4.56  -4.56  -2.70  -2.70  -2.70  -2.70  -2.70  -2.70  -2.70  -2.70
         -0.86  -0.86  -0.86  -0.86  -0.86  -0.86  -0.86  -0.86   1.78   1.78
          1.78   1.78
   4  1 -11.88 -11.88 -11.88 -11.88 -10.27 -10.27 -10.27 -10.27 -10.27 -10.27
        -10.27 -10.27  -9.39  -9.39  -9.39  -9.39  -9.36  -9.36  -9.36  -9.36
         -9.36  -9.36  -9.36  -9.36  -9.31  -9.31  -9.31  -9.31  -9.31  -9.31
         -9.31  -9.31  -8.99  -8.99  -8.99  -8.99  -8.99  -8.99  -8.99  -8.99
         -8.53  -8.53  -8.53  -8.53  -8.20  -8.20  -8.20  -8.20  -8.20  -8.20
         -8.20  -8.20  -7.98  -7.98  -7.98  -7.98  -7.61  -7.61  -7.61  -7.61
         -7.61  -7.61  -7.61  -7.61  -7.54  -7.54  -7.54  -7.54  -7.54  -7.54
         -7.54  -7.54  -7.24  -7.24  -7.24  -7.24  -7.15  -7.15  -7.15  -7.15
         -7.10  -7.10  -7.10  -7.10  -7.10  -7.10  -7.10  -7.10  -7.05  -7.05
         -7.05  -7.05  -7.05  -7.05  -7.05  -7.05  -6.75  -6.75  -6.75  -6.75
         -6.75  -6.75  -6.75  -6.75  -6.59  -6.59  -6.59  -6.59  -6.59  -6.59
         -6.59  -6.59  -6.48  -6.48  -6.48  -6.48  -6.33  -6.33  -6.33  -6.33
         -5.79  -5.79  -5.79  -5.79  -5.77  -5.77  -5.77  -5.77  -5.43  -5.43
         -5.43  -5.43  -5.43  -5.43  -5.43  -5.43  -5.19  -5.19  -5.19  -5.19
         -5.19  -5.19  -5.19  -5.19  -5.14  -5.14  -5.14  -5.14  -5.14  -5.14
         -5.14  -5.14  -5.05  -5.05  -5.05  -5.05  -5.05  -5.05  -5.05  -5.05
         -5.03  -5.03  -5.03  -5.03  -4.92  -4.92  -4.92  -4.92  -4.92  -4.92
         -4.92  -4.92  -2.68  -2.68  -2.68  -2.68  -2.68  -2.68  -2.68  -2.68
         -0.43  -0.43  -0.43  -0.43  -0.43  -0.43  -0.43  -0.43   0.90   0.90
          0.90   0.90
   5  1 -13.10 -11.00 -10.82 -10.82 -10.82 -10.82 -10.65 -10.38 -10.38 -10.38
        -10.38 -10.05 -10.05 -10.05  -9.62  -9.62  -9.62  -9.33  -9.33  -9.33
         -9.33  -9.25  -9.25  -9.25  -9.25  -9.15  -9.15  -9.15  -9.15  -8.76
         -8.76  -8.76  -8.75  -8.75  -8.75  -8.75  -8.69  -8.69  -8.69  -8.69
         -8.60  -8.05  -8.05  -8.05  -8.05  -8.03  -8.03  -8.00  -8.00  -8.00
         -8.00  -7.98  -7.98  -7.98  -7.98  -7.86  -7.86  -7.86  -7.86  -7.85
         -7.85  -7.85  -7.85  -7.70  -7.70  -7.70  -7.70  -7.67  -7.67  -7.67
         -7.67  -7.67  -7.67  -7.66  -7.66  -7.66  -7.66  -7.63  -7.63  -7.63
         -7.63  -7.62  -7.62  -7.62  -7.62  -7.58  -7.58  -7.58  -7.00  -7.00
         -7.00  -7.00  -6.98  -6.96  -6.70  -6.70  -6.70  -6.70  -6.69  -6.69
         -6.69  -6.69  -6.66  -6.66  -6.66  -6.66  -6.46  -6.46  -6.35  -6.35
         -6.35  -6.35  -6.34  -6.34  -6.34  -6.34  -6.27  -6.27  -6.27  -6.27
         -6.26  -6.26  -6.24  -6.24  -6.14  -6.14  -6.14  -6.14  -6.10  -6.08
         -6.07  -6.07  -6.07  -6.07  -6.02  -6.02  -6.02  -6.02  -5.59  -5.54
         -5.54  -5.54  -5.54  -5.50  -4.97  -4.97  -4.96  -4.92  -4.92  -4.92
         -4.92  -4.92  -4.92  -4.92  -4.92  -4.62  -4.62  -4.61  -4.61  -4.61
         -4.61  -4.61  -4.61  -4.60  -4.60  -4.60  -4.60  -3.55  -3.55  -3.55
         -3.55  -3.37  -3.37  -3.37  -3.37  -3.20  -3.20  -3.20  -3.20  -0.59
         -0.59  -0.59  -0.59   1.35   1.35   1.35   1.35   1.39   1.39   1.99
          2.16   2.16
   6  1 -12.47 -12.47 -10.49 -10.49 -10.31 -10.31 -10.31 -10.31 -10.14 -10.14
        -10.05 -10.05 -10.05 -10.05  -9.96  -9.96  -9.96  -9.96  -9.93  -9.93
         -9.54  -9.54  -9.54  -9.54  -9.36  -9.36  -9.19  -9.19  -9.19  -9.19
         -8.71  -8.71  -8.61  -8.61  -8.61  -8.61  -8.52  -8.52  -8.50  -8.50
         -8.46  -8.46  -8.46  -8.46  -8.41  -8.41  -8.19  -8.19  -8.16  -8.16
         -8.16  -8.16  -8.05  -8.05  -7.99  -7.99  -7.93  -7.93  -7.80  -7.80
         -7.80  -7.80  -7.79  -7.79  -7.79  -7.79  -7.74  -7.74  -7.74  -7.74
         -7.70  -7.70  -7.59  -7.59  -7.54  -7.54  -7.54  -7.54  -7.49  -7.49
         -7.32  -7.32  -7.32  -7.32  -7.28  -7.28  -7.28  -7.28  -7.26  -7.26
         -7.26  -7.26  -6.46  -6.46  -6.45  -6.45  -6.43  -6.43  -6.43  -6.43
         -6.37  -6.37  -6.24  -6.24  -6.21  -6.21  -6.21  -6.21  -6.21  -6.21
         -6.20  -6.20  -6.17  -6.17  -6.17  -6.17  -6.11  -6.11  -5.96  -5.96
         -5.96  -5.96  -5.94  -5.94  -5.90  -5.90  -5.90  -5.90  -5.83  -5.83
         -5.80  -5.80  -5.48  -5.48  -5.46  -5.46  -5.37  -5.37  -5.37  -5.37
         -5.31  -5.31  -5.31  -5.31  -5.28  -5.28  -5.19  -5.19  -5.19  -5.19
         -5.19  -5.19  -5.19  -5.19  -5.18  -5.18  -5.12  -5.12  -4.99  -4.99
         -4.87  -4.87  -4.87  -4.87  -4.75  -4.75  -4.61  -4.61  -4.61  -4.61
         -4.49  -4.49  -3.01  -3.01  -3.01  -3.01  -2.37  -2.37  -2.37  -2.37
         -1.04  -1.04  -0.85  -0.85  -0.85  -0.85  -0.69  -0.69   1.69   1.69
          1.77   1.77
   7  1 -12.47 -12.47 -10.49 -10.49 -10.31 -10.31 -10.31 -10.31 -10.14 -10.14
        -10.05 -10.05 -10.05 -10.05  -9.96  -9.96  -9.96  -9.96  -9.93  -9.93
         -9.54  -9.54  -9.54  -9.54  -9.36  -9.36  -9.19  -9.19  -9.19  -9.19
         -8.71  -8.71  -8.61  -8.61  -8.61  -8.61  -8.52  -8.52  -8.50  -8.50
         -8.46  -8.46  -8.46  -8.46  -8.41  -8.41  -8.19  -8.19  -8.16  -8.16
         -8.16  -8.16  -8.05  -8.05  -7.99  -7.99  -7.93  -7.93  -7.80  -7.80
         -7.80  -7.80  -7.79  -7.79  -7.79  -7.79  -7.74  -7.74  -7.74  -7.74
         -7.70  -7.70  -7.59  -7.59  -7.54  -7.54  -7.54  -7.54  -7.49  -7.49
         -7.32  -7.32  -7.32  -7.32  -7.28  -7.28  -7.28  -7.28  -7.26  -7.26
         -7.26  -7.26  -6.46  -6.46  -6.45  -6.45  -6.43  -6.43  -6.43  -6.43
         -6.37  -6.37  -6.24  -6.24  -6.21  -6.21  -6.21  -6.21  -6.21  -6.21
         -6.20  -6.20  -6.17  -6.17  -6.17  -6.17  -6.11  -6.11  -5.96  -5.96
         -5.96  -5.96  -5.94  -5.94  -5.90  -5.90  -5.90  -5.90  -5.83  -5.83
         -5.80  -5.80  -5.48  -5.48  -5.46  -5.46  -5.37  -5.37  -5.37  -5.37
         -5.31  -5.31  -5.31  -5.31  -5.28  -5.28  -5.19  -5.19  -5.19  -5.19
         -5.19  -5.19  -5.19  -5.19  -5.18  -5.18  -5.12  -5.12  -4.99  -4.99
         -4.87  -4.87  -4.87  -4.87  -4.75  -4.75  -4.61  -4.61  -4.61  -4.61
         -4.49  -4.49  -3.01  -3.01  -3.01  -3.01  -2.37  -2.37  -2.37  -2.37
         -1.04  -1.04  -0.85  -0.85  -0.85  -0.85  -0.69  -0.69   1.69   1.69
          1.77   1.77
   8  1 -11.88 -11.88 -11.88 -11.88 -10.39 -10.39 -10.39 -10.39 -10.15 -10.15
        -10.15 -10.15  -9.39  -9.39  -9.39  -9.39  -9.37  -9.37  -9.37  -9.37
         -9.37  -9.37  -9.37  -9.37  -9.32  -9.32  -9.32  -9.32  -9.32  -9.32
         -9.32  -9.32  -8.98  -8.98  -8.98  -8.98  -8.98  -8.98  -8.98  -8.98
         -8.53  -8.53  -8.53  -8.53  -8.20  -8.20  -8.20  -8.20  -8.20  -8.20
         -8.20  -8.20  -7.98  -7.98  -7.98  -7.98  -7.66  -7.66  -7.66  -7.66
         -7.59  -7.59  -7.59  -7.59  -7.56  -7.56  -7.56  -7.56  -7.50  -7.50
         -7.50  -7.50  -7.24  -7.24  -7.24  -7.24  -7.15  -7.15  -7.15  -7.15
         -7.15  -7.15  -7.15  -7.15  -7.05  -7.05  -7.05  -7.05  -7.05  -7.05
         -7.05  -7.05  -7.05  -7.05  -7.05  -7.05  -6.76  -6.76  -6.76  -6.76
         -6.76  -6.76  -6.76  -6.76  -6.59  -6.59  -6.59  -6.59  -6.59  -6.59
         -6.59  -6.59  -6.47  -6.47  -6.47  -6.47  -6.34  -6.34  -6.34  -6.34
         -5.80  -5.80  -5.80  -5.80  -5.77  -5.77  -5.77  -5.77  -5.48  -5.48
         -5.48  -5.48  -5.48  -5.48  -5.48  -5.48  -5.20  -5.20  -5.20  -5.20
         -5.16  -5.16  -5.16  -5.16  -5.16  -5.16  -5.16  -5.16  -5.15  -5.15
         -5.15  -5.15  -5.08  -5.08  -5.08  -5.08  -5.04  -5.04  -5.04  -5.04
         -5.04  -5.04  -5.04  -5.04  -5.02  -5.02  -5.02  -5.02  -4.67  -4.67
         -4.67  -4.67  -2.66  -2.66  -2.66  -2.66  -2.66  -2.66  -2.66  -2.66
         -0.44  -0.44  -0.44  -0.44  -0.44  -0.44  -0.44  -0.44   0.87   0.87
          0.87   0.87
   9  1 -13.08 -11.19 -10.81 -10.81 -10.81 -10.81 -10.49 -10.37 -10.37 -10.37
        -10.37 -10.05 -10.03 -10.03  -9.61  -9.61  -9.61  -9.44  -9.44  -9.44
         -9.44  -9.31  -9.31  -9.31  -9.31  -9.06  -9.06  -9.06  -9.06  -8.84
         -8.80  -8.80  -8.74  -8.74  -8.74  -8.74  -8.68  -8.68  -8.68  -8.68
         -8.52  -8.20  -8.20  -8.10  -8.10  -8.10  -8.10  -7.97  -7.97  -7.97
         -7.97  -7.95  -7.95  -7.95  -7.95  -7.88  -7.88  -7.88  -7.88  -7.85
         -7.85  -7.85  -7.85  -7.73  -7.73  -7.73  -7.73  -7.67  -7.67  -7.67
         -7.67  -7.64  -7.64  -7.64  -7.64  -7.61  -7.61  -7.61  -7.61  -7.59
         -7.59  -7.59  -7.59  -7.59  -7.57  -7.57  -7.48  -7.48  -7.04  -7.04
         -7.04  -7.04  -6.95  -6.91  -6.74  -6.74  -6.74  -6.74  -6.68  -6.68
         -6.68  -6.68  -6.61  -6.61  -6.61  -6.61  -6.57  -6.57  -6.35  -6.35
         -6.35  -6.35  -6.31  -6.31  -6.31  -6.31  -6.26  -6.26  -6.26  -6.26
         -6.23  -6.23  -6.19  -6.19  -6.19  -6.19  -6.12  -6.12  -6.11  -6.08
         -6.02  -6.02  -6.02  -6.02  -5.95  -5.95  -5.95  -5.95  -5.63  -5.53
         -5.53  -5.53  -5.53  -5.46  -4.99  -4.99  -4.97  -4.95  -4.95  -4.95
         -4.95  -4.94  -4.94  -4.94  -4.94  -4.66  -4.66  -4.63  -4.63  -4.63
         -4.63  -4.63  -4.63  -4.60  -4.60  -4.60  -4.60  -3.71  -3.71  -3.71
         -3.71  -3.36  -3.36  -3.36  -3.36  -3.00  -3.00  -3.00  -3.00  -0.70
         -0.70  -0.70  -0.70   1.26   1.26   1.26   1.26   1.41   1.41   1.53
          2.14   2.14
  10  1 -12.45 -12.45 -10.67 -10.67 -10.31 -10.31 -10.31 -10.31 -10.09 -10.09
        -10.09 -10.09  -9.97  -9.97  -9.92  -9.92  -9.90  -9.90  -9.90  -9.90
         -9.54  -9.54  -9.53  -9.53  -9.35  -9.35  -9.19  -9.19  -9.16  -9.16
         -8.82  -8.82  -8.63  -8.63  -8.63  -8.63  -8.58  -8.58  -8.43  -8.43
         -8.43  -8.43  -8.42  -8.42  -8.35  -8.35  -8.25  -8.25  -8.24  -8.24
         -8.24  -8.24  -8.13  -8.13  -8.01  -8.01  -7.93  -7.93  -7.84  -7.84
         -7.84  -7.84  -7.71  -7.71  -7.71  -7.71  -7.67  -7.67  -7.67  -7.67
         -7.62  -7.62  -7.54  -7.54  -7.54  -7.54  -7.54  -7.54  -7.44  -7.44
         -7.33  -7.33  -7.33  -7.33  -7.26  -7.26  -7.26  -7.26  -7.25  -7.25
         -7.25  -7.25  -6.56  -6.56  -6.53  -6.53  -6.53  -6.53  -6.45  -6.45
         -6.44  -6.44  -6.21  -6.21  -6.20  -6.20  -6.20  -6.20  -6.12  -6.12
         -6.12  -6.12  -6.09  -6.09  -6.09  -6.09  -6.06  -6.06  -6.06  -6.06
         -6.05  -6.05  -5.94  -5.94  -5.93  -5.93  -5.93  -5.93  -5.90  -5.90
         -5.81  -5.81  -5.49  -5.49  -5.45  -5.45  -5.43  -5.43  -5.37  -5.37
         -5.37  -5.37  -5.25  -5.25  -5.25  -5.25  -5.19  -5.19  -5.18  -5.18
         -5.18  -5.18  -5.18  -5.18  -5.18  -5.18  -5.12  -5.12  -5.09  -5.09
         -4.88  -4.88  -4.88  -4.88  -4.63  -4.63  -4.63  -4.63  -4.62  -4.62
         -4.34  -4.34  -3.30  -3.30  -3.30  -3.30  -2.05  -2.05  -2.05  -2.05
         -1.21  -1.21  -0.82  -0.82  -0.82  -0.82  -0.51  -0.51   1.41   1.41
          1.75   1.75
  11  1 -12.45 -12.45 -10.67 -10.67 -10.31 -10.31 -10.31 -10.31 -10.09 -10.09
        -10.09 -10.09  -9.97  -9.97  -9.92  -9.92  -9.90  -9.90  -9.90  -9.90
         -9.54  -9.54  -9.53  -9.53  -9.35  -9.35  -9.19  -9.19  -9.16  -9.16
         -8.82  -8.82  -8.63  -8.63  -8.63  -8.63  -8.58  -8.58  -8.43  -8.43
         -8.43  -8.43  -8.42  -8.42  -8.35  -8.35  -8.25  -8.25  -8.24  -8.24
         -8.24  -8.24  -8.13  -8.13  -8.01  -8.01  -7.93  -7.93  -7.84  -7.84
         -7.84  -7.84  -7.71  -7.71  -7.71  -7.71  -7.67  -7.67  -7.67  -7.67
         -7.62  -7.62  -7.54  -7.54  -7.54  -7.54  -7.54  -7.54  -7.44  -7.44
         -7.33  -7.33  -7.33  -7.33  -7.26  -7.26  -7.26  -7.26  -7.25  -7.25
         -7.25  -7.25  -6.56  -6.56  -6.53  -6.53  -6.53  -6.53  -6.45  -6.45
         -6.44  -6.44  -6.21  -6.21  -6.20  -6.20  -6.20  -6.20  -6.12  -6.12
         -6.12  -6.12  -6.09  -6.09  -6.09  -6.09  -6.06  -6.06  -6.06  -6.06
         -6.05  -6.05  -5.94  -5.94  -5.93  -5.93  -5.93  -5.93  -5.90  -5.90
         -5.81  -5.81  -5.49  -5.49  -5.45  -5.45  -5.43  -5.43  -5.37  -5.37
         -5.37  -5.37  -5.25  -5.25  -5.25  -5.25  -5.19  -5.19  -5.18  -5.18
         -5.18  -5.18  -5.18  -5.18  -5.18  -5.18  -5.12  -5.12  -5.09  -5.09
         -4.88  -4.88  -4.88  -4.88  -4.63  -4.63  -4.63  -4.63  -4.62  -4.62
         -4.34  -4.34  -3.30  -3.30  -3.30  -3.30  -2.05  -2.05  -2.05  -2.05
         -1.21  -1.21  -0.82  -0.82  -0.82  -0.82  -0.51  -0.51   1.41   1.41
          1.75   1.75
  12  1 -11.86 -11.86 -11.86 -11.86 -10.52 -10.52 -10.52 -10.52 -10.04 -10.04
        -10.04 -10.04  -9.39  -9.39  -9.39  -9.39  -9.38  -9.38  -9.38  -9.38
         -9.38  -9.38  -9.38  -9.38  -9.32  -9.32  -9.32  -9.32  -9.32  -9.32
         -9.32  -9.32  -8.94  -8.94  -8.94  -8.94  -8.94  -8.94  -8.94  -8.94
         -8.52  -8.52  -8.52  -8.52  -8.19  -8.19  -8.19  -8.19  -8.19  -8.19
         -8.19  -8.19  -7.97  -7.97  -7.97  -7.97  -7.73  -7.73  -7.73  -7.73
         -7.59  -7.59  -7.59  -7.59  -7.55  -7.55  -7.55  -7.55  -7.45  -7.45
         -7.45  -7.45  -7.24  -7.24  -7.24  -7.24  -7.19  -7.19  -7.19  -7.19
         -7.17  -7.17  -7.17  -7.17  -7.05  -7.05  -7.05  -7.05  -7.05  -7.05
         -7.05  -7.05  -7.00  -7.00  -7.00  -7.00  -6.78  -6.78  -6.78  -6.78
         -6.78  -6.78  -6.78  -6.78  -6.60  -6.60  -6.60  -6.60  -6.60  -6.60
         -6.60  -6.60  -6.45  -6.45  -6.45  -6.45  -6.38  -6.38  -6.38  -6.38
         -5.83  -5.83  -5.83  -5.83  -5.78  -5.78  -5.78  -5.78  -5.58  -5.58
         -5.58  -5.58  -5.58  -5.58  -5.58  -5.58  -5.35  -5.35  -5.35  -5.35
         -5.27  -5.27  -5.27  -5.27  -5.08  -5.08  -5.08  -5.08  -5.08  -5.08
         -5.08  -5.08  -5.03  -5.03  -5.03  -5.03  -5.03  -5.03  -5.03  -5.03
         -5.02  -5.02  -5.02  -5.02  -5.01  -5.01  -5.01  -5.01  -4.40  -4.40
         -4.40  -4.40  -2.62  -2.62  -2.62  -2.62  -2.62  -2.62  -2.62  -2.62
         -0.49  -0.49  -0.49  -0.49  -0.49  -0.49  -0.49  -0.49   0.77   0.77
          0.77   0.77
  13  1 -13.05 -11.37 -10.78 -10.78 -10.78 -10.78 -10.35 -10.35 -10.35 -10.35
        -10.35 -10.04 -10.01 -10.01  -9.60  -9.59  -9.59  -9.54  -9.54  -9.54
         -9.54  -9.38  -9.38  -9.38  -9.38  -8.98  -8.98  -8.98  -8.98  -8.92
         -8.86  -8.86  -8.72  -8.72  -8.72  -8.72  -8.67  -8.67  -8.67  -8.67
         -8.44  -8.36  -8.36  -8.14  -8.14  -8.14  -8.14  -7.94  -7.94  -7.94
         -7.94  -7.92  -7.92  -7.92  -7.92  -7.91  -7.91  -7.91  -7.91  -7.85
         -7.85  -7.85  -7.85  -7.78  -7.78  -7.78  -7.78  -7.67  -7.67  -7.67
         -7.67  -7.64  -7.64  -7.64  -7.64  -7.61  -7.60  -7.60  -7.60  -7.60
         -7.55  -7.55  -7.47  -7.47  -7.47  -7.47  -7.28  -7.28  -7.09  -7.09
         -7.09  -7.09  -6.91  -6.82  -6.81  -6.81  -6.81  -6.81  -6.68  -6.68
         -6.65  -6.65  -6.65  -6.65  -6.55  -6.55  -6.55  -6.55  -6.35  -6.35
         -6.35  -6.35  -6.27  -6.27  -6.27  -6.27  -6.24  -6.24  -6.24  -6.24
         -6.22  -6.22  -6.22  -6.22  -6.16  -6.16  -6.13  -6.07  -6.00  -6.00
         -5.95  -5.95  -5.95  -5.95  -5.87  -5.87  -5.87  -5.87  -5.67  -5.50
         -5.50  -5.50  -5.50  -5.41  -5.01  -5.01  -4.98  -4.98  -4.98  -4.98
         -4.98  -4.96  -4.96  -4.96  -4.96  -4.73  -4.73  -4.66  -4.66  -4.66
         -4.66  -4.66  -4.66  -4.60  -4.60  -4.60  -4.60  -3.87  -3.87  -3.87
         -3.87  -3.33  -3.33  -3.33  -3.33  -2.79  -2.79  -2.79  -2.79  -0.88
         -0.88  -0.88  -0.88   0.85   1.12   1.12   1.12   1.12   1.43   1.43
          2.12   2.12
  14  1 -12.42 -12.42 -10.84 -10.84 -10.31 -10.31 -10.31 -10.31 -10.12 -10.12
        -10.12 -10.12  -9.89  -9.89  -9.85  -9.85  -9.85  -9.85  -9.81  -9.81
         -9.54  -9.54  -9.52  -9.52  -9.33  -9.33  -9.17  -9.17  -9.12  -9.12
         -8.91  -8.91  -8.66  -8.66  -8.66  -8.66  -8.64  -8.64  -8.48  -8.48
         -8.38  -8.38  -8.38  -8.38  -8.31  -8.31  -8.31  -8.31  -8.29  -8.29
         -8.27  -8.27  -8.18  -8.18  -8.00  -8.00  -7.92  -7.92  -7.88  -7.88
         -7.88  -7.88  -7.70  -7.70  -7.70  -7.70  -7.64  -7.64  -7.55  -7.55
         -7.55  -7.55  -7.53  -7.53  -7.53  -7.53  -7.38  -7.38  -7.38  -7.38
         -7.32  -7.32  -7.32  -7.32  -7.26  -7.26  -7.26  -7.26  -7.21  -7.21
         -7.21  -7.21  -6.66  -6.66  -6.62  -6.62  -6.62  -6.62  -6.49  -6.49
         -6.44  -6.44  -6.24  -6.24  -6.24  -6.24  -6.20  -6.20  -6.20  -6.20
         -6.20  -6.20  -6.02  -6.02  -6.01  -6.01  -6.00  -6.00  -5.97  -5.97
         -5.97  -5.97  -5.97  -5.97  -5.97  -5.97  -5.97  -5.97  -5.94  -5.94
         -5.83  -5.83  -5.65  -5.65  -5.51  -5.51  -5.39  -5.39  -5.35  -5.35
         -5.35  -5.35  -5.20  -5.20  -5.20  -5.20  -5.20  -5.20  -5.19  -5.19
         -5.18  -5.18  -5.17  -5.17  -5.16  -5.16  -5.16  -5.16  -5.13  -5.13
         -4.89  -4.89  -4.89  -4.89  -4.67  -4.67  -4.66  -4.66  -4.47  -4.47
         -4.14  -4.14  -3.58  -3.58  -3.58  -3.58  -1.73  -1.73  -1.73  -1.73
         -1.38  -1.38  -0.76  -0.76  -0.76  -0.76  -0.33  -0.33   0.99   0.99
          1.70   1.70
  15  1 -12.42 -12.42 -10.84 -10.84 -10.31 -10.31 -10.31 -10.31 -10.12 -10.12
        -10.12 -10.12  -9.89  -9.89  -9.85  -9.85  -9.85  -9.85  -9.81  -9.81
         -9.54  -9.54  -9.52  -9.52  -9.33  -9.33  -9.17  -9.17  -9.12  -9.12
         -8.91  -8.91  -8.66  -8.66  -8.66  -8.66  -8.64  -8.64  -8.48  -8.48
         -8.38  -8.38  -8.38  -8.38  -8.31  -8.31  -8.31  -8.31  -8.29  -8.29
         -8.27  -8.27  -8.18  -8.18  -8.00  -8.00  -7.92  -7.92  -7.88  -7.88
         -7.88  -7.88  -7.70  -7.70  -7.70  -7.70  -7.64  -7.64  -7.55  -7.55
         -7.55  -7.55  -7.53  -7.53  -7.53  -7.53  -7.38  -7.38  -7.38  -7.38
         -7.32  -7.32  -7.32  -7.32  -7.26  -7.26  -7.26  -7.26  -7.21  -7.21
         -7.21  -7.21  -6.66  -6.66  -6.62  -6.62  -6.62  -6.62  -6.49  -6.49
         -6.44  -6.44  -6.24  -6.24  -6.24  -6.24  -6.20  -6.20  -6.20  -6.20
         -6.20  -6.20  -6.02  -6.02  -6.01  -6.01  -6.00  -6.00  -5.97  -5.97
         -5.97  -5.97  -5.97  -5.97  -5.97  -5.97  -5.97  -5.97  -5.94  -5.94
         -5.83  -5.83  -5.65  -5.65  -5.51  -5.51  -5.39  -5.39  -5.35  -5.35
         -5.35  -5.35  -5.20  -5.20  -5.20  -5.20  -5.20  -5.20  -5.19  -5.19
         -5.18  -5.18  -5.17  -5.17  -5.16  -5.16  -5.16  -5.16  -5.13  -5.13
         -4.89  -4.89  -4.89  -4.89  -4.67  -4.67  -4.66  -4.66  -4.47  -4.47
         -4.14  -4.14  -3.58  -3.58  -3.58  -3.58  -1.73  -1.73  -1.73  -1.73
         -1.38  -1.38  -0.76  -0.76  -0.76  -0.76  -0.33  -0.33   0.99   0.99
          1.70   1.70
  16  1 -11.84 -11.84 -11.84 -11.84 -10.64 -10.64 -10.64 -10.64  -9.93  -9.93
         -9.93  -9.93  -9.40  -9.40  -9.40  -9.40  -9.40  -9.40  -9.40  -9.40
         -9.38  -9.38  -9.38  -9.38  -9.34  -9.34  -9.34  -9.34  -9.34  -9.34
         -9.34  -9.34  -8.88  -8.88  -8.88  -8.88  -8.88  -8.88  -8.88  -8.88
         -8.51  -8.51  -8.51  -8.51  -8.17  -8.17  -8.17  -8.17  -8.17  -8.17
         -8.17  -8.17  -7.95  -7.95  -7.95  -7.95  -7.80  -7.80  -7.80  -7.80
         -7.58  -7.58  -7.58  -7.58  -7.54  -7.54  -7.54  -7.54  -7.41  -7.41
         -7.41  -7.41  -7.25  -7.25  -7.25  -7.25  -7.22  -7.22  -7.22  -7.22
         -7.18  -7.18  -7.18  -7.18  -7.06  -7.06  -7.06  -7.06  -7.06  -7.06
         -7.06  -7.06  -6.94  -6.94  -6.94  -6.94  -6.82  -6.82  -6.82  -6.82
         -6.82  -6.82  -6.82  -6.82  -6.61  -6.61  -6.61  -6.61  -6.61  -6.61
         -6.61  -6.61  -6.43  -6.43  -6.43  -6.43  -6.41  -6.41  -6.41  -6.41
         -5.88  -5.88  -5.88  -5.88  -5.79  -5.79  -5.79  -5.79  -5.70  -5.70
         -5.70  -5.70  -5.70  -5.70  -5.70  -5.70  -5.52  -5.52  -5.52  -5.52
         -5.35  -5.35  -5.35  -5.35  -5.01  -5.01  -5.01  -5.01  -5.01  -5.01
         -5.01  -5.01  -5.00  -5.00  -5.00  -5.00  -5.00  -5.00  -5.00  -5.00
         -4.98  -4.98  -4.98  -4.98  -4.97  -4.97  -4.97  -4.97  -4.10  -4.10
         -4.10  -4.10  -2.56  -2.56  -2.56  -2.56  -2.56  -2.56  -2.56  -2.56
         -0.56  -0.56  -0.56  -0.56  -0.56  -0.56  -0.56  -0.56   0.61   0.61
          0.61   0.61
  17  1 -13.01 -11.55 -10.74 -10.74 -10.74 -10.74 -10.32 -10.32 -10.32 -10.32
        -10.23 -10.02  -9.97  -9.97  -9.66  -9.66  -9.66  -9.66  -9.58  -9.56
         -9.56  -9.47  -9.47  -9.47  -9.47  -8.99  -8.94  -8.94  -8.91  -8.91
         -8.91  -8.91  -8.70  -8.70  -8.70  -8.70  -8.65  -8.65  -8.65  -8.65
         -8.51  -8.51  -8.36  -8.19  -8.19  -8.19  -8.19  -7.94  -7.94  -7.94
         -7.94  -7.91  -7.91  -7.91  -7.91  -7.90  -7.90  -7.90  -7.90  -7.85
         -7.85  -7.85  -7.85  -7.83  -7.83  -7.83  -7.83  -7.67  -7.67  -7.67
         -7.67  -7.66  -7.66  -7.66  -7.66  -7.64  -7.57  -7.57  -7.57  -7.57
         -7.53  -7.53  -7.31  -7.31  -7.31  -7.31  -7.16  -7.16  -7.16  -7.16
         -7.07  -7.07  -6.88  -6.88  -6.88  -6.88  -6.86  -6.77  -6.77  -6.68
         -6.61  -6.61  -6.61  -6.61  -6.48  -6.48  -6.48  -6.48  -6.35  -6.35
         -6.35  -6.35  -6.26  -6.26  -6.26  -6.26  -6.24  -6.24  -6.24  -6.24
         -6.21  -6.21  -6.21  -6.21  -6.16  -6.08  -6.08  -6.06  -5.88  -5.88
         -5.87  -5.87  -5.87  -5.87  -5.79  -5.79  -5.79  -5.79  -5.72  -5.46
         -5.46  -5.46  -5.46  -5.37  -5.05  -5.05  -5.04  -5.04  -5.04  -5.04
         -4.99  -4.99  -4.99  -4.99  -4.99  -4.82  -4.82  -4.71  -4.71  -4.71
         -4.71  -4.71  -4.71  -4.60  -4.60  -4.60  -4.60  -4.03  -4.03  -4.03
         -4.03  -3.30  -3.30  -3.30  -3.30  -2.57  -2.57  -2.57  -2.57  -1.12
         -1.12  -1.12  -1.12   0.02   0.92   0.92   0.92   0.92   1.46   1.46
          2.09   2.09
  18  1 -12.38 -12.38 -11.02 -11.02 -10.31 -10.31 -10.31 -10.31 -10.16 -10.16
        -10.16 -10.16  -9.84  -9.84  -9.78  -9.78  -9.78  -9.78  -9.67  -9.67
         -9.54  -9.54  -9.50  -9.50  -9.31  -9.31  -9.16  -9.16  -9.06  -9.06
         -9.00  -9.00  -8.73  -8.73  -8.73  -8.73  -8.70  -8.70  -8.60  -8.60
         -8.39  -8.39  -8.35  -8.35  -8.35  -8.35  -8.32  -8.32  -8.32  -8.32
         -8.24  -8.24  -8.05  -8.05  -8.02  -8.02  -7.92  -7.92  -7.92  -7.92
         -7.92  -7.92  -7.68  -7.68  -7.68  -7.68  -7.64  -7.64  -7.55  -7.55
         -7.55  -7.55  -7.39  -7.39  -7.39  -7.39  -7.34  -7.34  -7.31  -7.31
         -7.31  -7.31  -7.26  -7.26  -7.26  -7.26  -7.22  -7.22  -7.16  -7.16
         -7.16  -7.16  -6.75  -6.75  -6.71  -6.71  -6.71  -6.71  -6.53  -6.53
         -6.43  -6.43  -6.37  -6.37  -6.37  -6.37  -6.29  -6.29  -6.29  -6.29
         -6.17  -6.17  -6.13  -6.13  -6.03  -6.03  -6.03  -6.03  -5.94  -5.94
         -5.92  -5.92  -5.89  -5.89  -5.89  -5.89  -5.86  -5.86  -5.85  -5.85
         -5.85  -5.85  -5.85  -5.85  -5.53  -5.53  -5.36  -5.36  -5.32  -5.32
         -5.32  -5.32  -5.29  -5.29  -5.19  -5.19  -5.18  -5.18  -5.17  -5.17
         -5.15  -5.15  -5.15  -5.15  -5.15  -5.15  -5.15  -5.15  -5.15  -5.15
         -4.90  -4.90  -4.90  -4.90  -4.71  -4.71  -4.71  -4.71  -4.31  -4.31
         -3.93  -3.93  -3.83  -3.83  -3.83  -3.83  -1.56  -1.56  -1.44  -1.44
         -1.44  -1.44  -0.70  -0.70  -0.70  -0.70  -0.15  -0.15   0.48   0.48
          1.63   1.63
  19  1 -12.38 -12.38 -11.02 -11.02 -10.31 -10.31 -10.31 -10.31 -10.16 -10.16
        -10.16 -10.16  -9.84  -9.84  -9.78  -9.78  -9.78  -9.78  -9.67  -9.67
         -9.54  -9.54  -9.50  -9.50  -9.31  -9.31  -9.16  -9.16  -9.06  -9.06
         -9.00  -9.00  -8.73  -8.73  -8.73  -8.73  -8.70  -8.70  -8.60  -8.60
         -8.39  -8.39  -8.35  -8.35  -8.35  -8.35  -8.32  -8.32  -8.32  -8.32
         -8.24  -8.24  -8.05  -8.05  -8.02  -8.02  -7.92  -7.92  -7.92  -7.92
         -7.92  -7.92  -7.68  -7.68  -7.68  -7.68  -7.64  -7.64  -7.55  -7.55
         -7.55  -7.55  -7.39  -7.39  -7.39  -7.39  -7.34  -7.34  -7.31  -7.31
         -7.31  -7.31  -7.26  -7.26  -7.26  -7.26  -7.22  -7.22  -7.16  -7.16
         -7.16  -7.16  -6.75  -6.75  -6.71  -6.71  -6.71  -6.71  -6.53  -6.53
         -6.43  -6.43  -6.37  -6.37  -6.37  -6.37  -6.29  -6.29  -6.29  -6.29
         -6.17  -6.17  -6.13  -6.13  -6.03  -6.03  -6.03  -6.03  -5.94  -5.94
         -5.92  -5.92  -5.89  -5.89  -5.89  -5.89  -5.86  -5.86  -5.85  -5.85
         -5.85  -5.85  -5.85  -5.85  -5.53  -5.53  -5.36  -5.36  -5.32  -5.32
         -5.32  -5.32  -5.29  -5.29  -5.19  -5.19  -5.18  -5.18  -5.17  -5.17
         -5.15  -5.15  -5.15  -5.15  -5.15  -5.15  -5.15  -5.15  -5.15  -5.15
         -4.90  -4.90  -4.90  -4.90  -4.71  -4.71  -4.71  -4.71  -4.31  -4.31
         -3.93  -3.93  -3.83  -3.83  -3.83  -3.83  -1.56  -1.56  -1.44  -1.44
         -1.44  -1.44  -0.70  -0.70  -0.70  -0.70  -0.15  -0.15   0.48   0.48
          1.63   1.63
  20  1 -11.80 -11.80 -11.80 -11.80 -10.76 -10.76 -10.76 -10.76  -9.83  -9.83
         -9.83  -9.83  -9.42  -9.42  -9.42  -9.42  -9.42  -9.42  -9.42  -9.42
         -9.38  -9.38  -9.38  -9.38  -9.35  -9.35  -9.35  -9.35  -9.35  -9.35
         -9.35  -9.35  -8.81  -8.81  -8.81  -8.81  -8.81  -8.81  -8.81  -8.81
         -8.49  -8.49  -8.49  -8.49  -8.14  -8.14  -8.14  -8.14  -8.14  -8.14
         -8.14  -8.14  -7.93  -7.93  -7.93  -7.93  -7.87  -7.87  -7.87  -7.87
         -7.58  -7.58  -7.58  -7.58  -7.51  -7.51  -7.51  -7.51  -7.38  -7.38
         -7.38  -7.38  -7.25  -7.25  -7.25  -7.25  -7.25  -7.25  -7.25  -7.25
         -7.20  -7.20  -7.20  -7.20  -7.06  -7.06  -7.06  -7.06  -7.06  -7.06
         -7.06  -7.06  -6.87  -6.87  -6.87  -6.87  -6.87  -6.87  -6.87  -6.87
         -6.87  -6.87  -6.87  -6.87  -6.60  -6.60  -6.60  -6.60  -6.60  -6.60
         -6.60  -6.60  -6.51  -6.51  -6.51  -6.51  -6.36  -6.36  -6.36  -6.36
         -5.94  -5.94  -5.94  -5.94  -5.81  -5.81  -5.81  -5.81  -5.81  -5.81
         -5.81  -5.81  -5.81  -5.81  -5.81  -5.81  -5.66  -5.66  -5.66  -5.66
         -5.42  -5.42  -5.42  -5.42  -4.98  -4.98  -4.98  -4.98  -4.98  -4.98
         -4.98  -4.98  -4.95  -4.95  -4.95  -4.95  -4.95  -4.95  -4.95  -4.95
         -4.95  -4.95  -4.95  -4.95  -4.93  -4.93  -4.93  -4.93  -3.78  -3.78
         -3.78  -3.78  -2.47  -2.47  -2.47  -2.47  -2.47  -2.47  -2.47  -2.47
         -0.66  -0.66  -0.66  -0.66  -0.66  -0.66  -0.66  -0.66   0.40   0.40
          0.40   0.40
  21  1 -12.95 -11.72 -10.69 -10.69 -10.69 -10.69 -10.29 -10.29 -10.29 -10.29
        -10.12 -10.01  -9.92  -9.92  -9.77  -9.77  -9.77  -9.77  -9.57  -9.57
         -9.57  -9.57  -9.55  -9.52  -9.52  -9.06  -9.04  -9.04  -8.84  -8.84
         -8.84  -8.84  -8.68  -8.68  -8.68  -8.68  -8.65  -8.65  -8.63  -8.63
         -8.63  -8.63  -8.28  -8.24  -8.24  -8.24  -8.24  -7.99  -7.99  -7.99
         -7.99  -7.89  -7.89  -7.89  -7.89  -7.89  -7.89  -7.89  -7.89  -7.88
         -7.88  -7.88  -7.88  -7.85  -7.85  -7.85  -7.85  -7.67  -7.67  -7.67
         -7.67  -7.67  -7.67  -7.67  -7.67  -7.67  -7.55  -7.55  -7.55  -7.55
         -7.50  -7.50  -7.23  -7.23  -7.23  -7.23  -7.11  -7.11  -7.11  -7.11
         -6.95  -6.95  -6.95  -6.95  -6.87  -6.87  -6.86  -6.86  -6.80  -6.56
         -6.56  -6.56  -6.56  -6.48  -6.41  -6.41  -6.41  -6.41  -6.35  -6.35
         -6.35  -6.35  -6.28  -6.28  -6.28  -6.28  -6.21  -6.21  -6.21  -6.21
         -6.19  -6.19  -6.19  -6.19  -6.19  -6.05  -5.99  -5.99  -5.78  -5.78
         -5.78  -5.78  -5.76  -5.76  -5.76  -5.69  -5.69  -5.69  -5.69  -5.40
         -5.40  -5.40  -5.40  -5.33  -5.12  -5.12  -5.12  -5.12  -5.10  -5.10
         -5.03  -5.03  -5.03  -5.03  -5.01  -4.94  -4.94  -4.77  -4.77  -4.77
         -4.77  -4.76  -4.76  -4.60  -4.60  -4.60  -4.60  -4.18  -4.18  -4.18
         -4.18  -3.25  -3.25  -3.25  -3.25  -2.33  -2.33  -2.33  -2.33  -1.39
         -1.39  -1.39  -1.39  -0.85   0.68   0.68   0.68   0.68   1.51   1.51
          2.05   2.05
  22  1 -12.32 -12.32 -11.18 -11.18 -10.31 -10.31 -10.31 -10.31 -10.18 -10.18
        -10.18 -10.18  -9.79  -9.79  -9.72  -9.72  -9.72  -9.72  -9.56  -9.56
         -9.53  -9.53  -9.48  -9.48  -9.27  -9.27  -9.14  -9.14  -9.09  -9.09
         -8.99  -8.99  -8.82  -8.82  -8.82  -8.82  -8.75  -8.75  -8.73  -8.73
         -8.51  -8.51  -8.36  -8.36  -8.36  -8.36  -8.23  -8.23  -8.23  -8.23
         -8.18  -8.18  -8.07  -8.07  -7.97  -7.97  -7.97  -7.97  -7.92  -7.92
         -7.90  -7.90  -7.67  -7.67  -7.67  -7.67  -7.61  -7.61  -7.56  -7.56
         -7.56  -7.56  -7.30  -7.30  -7.29  -7.29  -7.29  -7.29  -7.26  -7.26
         -7.25  -7.25  -7.25  -7.25  -7.25  -7.25  -7.10  -7.10  -7.10  -7.10
         -7.06  -7.06  -6.83  -6.83  -6.79  -6.79  -6.79  -6.79  -6.56  -6.56
         -6.56  -6.56  -6.56  -6.56  -6.42  -6.42  -6.36  -6.36  -6.36  -6.36
         -6.26  -6.26  -6.13  -6.13  -6.11  -6.11  -6.11  -6.11  -6.06  -6.06
         -5.94  -5.94  -5.90  -5.90  -5.82  -5.82  -5.81  -5.81  -5.77  -5.77
         -5.72  -5.72  -5.72  -5.72  -5.56  -5.56  -5.38  -5.38  -5.34  -5.34
         -5.28  -5.28  -5.28  -5.28  -5.19  -5.19  -5.18  -5.18  -5.18  -5.18
         -5.15  -5.15  -5.13  -5.13  -5.13  -5.13  -5.11  -5.11  -5.11  -5.11
         -4.92  -4.92  -4.92  -4.92  -4.76  -4.76  -4.76  -4.76  -4.13  -4.13
         -4.06  -4.06  -4.06  -4.06  -3.72  -3.72  -1.74  -1.74  -1.17  -1.17
         -1.16  -1.16  -0.63  -0.63  -0.63  -0.63  -0.09  -0.09   0.03   0.03
          1.55   1.55
  23  1 -12.32 -12.32 -11.18 -11.18 -10.31 -10.31 -10.31 -10.31 -10.18 -10.18
        -10.18 -10.18  -9.79  -9.79  -9.72  -9.72  -9.72  -9.72  -9.56  -9.56
         -9.53  -9.53  -9.48  -9.48  -9.27  -9.27  -9.14  -9.14  -9.09  -9.09
         -8.99  -8.99  -8.82  -8.82  -8.82  -8.82  -8.75  -8.75  -8.73  -8.73
         -8.51  -8.51  -8.36  -8.36  -8.36  -8.36  -8.23  -8.23  -8.23  -8.23
         -8.18  -8.18  -8.07  -8.07  -7.97  -7.97  -7.97  -7.97  -7.92  -7.92
         -7.90  -7.90  -7.67  -7.67  -7.67  -7.67  -7.61  -7.61  -7.56  -7.56
         -7.56  -7.56  -7.30  -7.30  -7.29  -7.29  -7.29  -7.29  -7.26  -7.26
         -7.25  -7.25  -7.25  -7.25  -7.25  -7.25  -7.10  -7.10  -7.10  -7.10
         -7.06  -7.06  -6.83  -6.83  -6.79  -6.79  -6.79  -6.79  -6.56  -6.56
         -6.56  -6.56  -6.56  -6.56  -6.42  -6.42  -6.36  -6.36  -6.36  -6.36
         -6.26  -6.26  -6.13  -6.13  -6.11  -6.11  -6.11  -6.11  -6.06  -6.06
         -5.94  -5.94  -5.90  -5.90  -5.82  -5.82  -5.81  -5.81  -5.77  -5.77
         -5.72  -5.72  -5.72  -5.72  -5.56  -5.56  -5.38  -5.38  -5.34  -5.34
         -5.28  -5.28  -5.28  -5.28  -5.19  -5.19  -5.18  -5.18  -5.18  -5.18
         -5.15  -5.15  -5.13  -5.13  -5.13  -5.13  -5.11  -5.11  -5.11  -5.11
         -4.92  -4.92  -4.92  -4.92  -4.76  -4.76  -4.76  -4.76  -4.13  -4.13
         -4.06  -4.06  -4.06  -4.06  -3.72  -3.72  -1.74  -1.74  -1.17  -1.17
         -1.16  -1.16  -0.63  -0.63  -0.63  -0.63  -0.09  -0.09   0.03   0.03
          1.55   1.55
  24  1 -11.76 -11.76 -11.76 -11.76 -10.88 -10.88 -10.88 -10.88  -9.74  -9.74
         -9.74  -9.74  -9.43  -9.43  -9.43  -9.43  -9.43  -9.43  -9.43  -9.43
         -9.38  -9.38  -9.38  -9.38  -9.37  -9.37  -9.37  -9.37  -9.37  -9.37
         -9.37  -9.37  -8.73  -8.73  -8.73  -8.73  -8.73  -8.73  -8.73  -8.73
         -8.47  -8.47  -8.47  -8.47  -8.13  -8.13  -8.13  -8.13  -8.13  -8.13
         -8.13  -8.13  -7.94  -7.94  -7.94  -7.94  -7.90  -7.90  -7.90  -7.90
         -7.58  -7.58  -7.58  -7.58  -7.48  -7.48  -7.48  -7.48  -7.35  -7.35
         -7.35  -7.35  -7.27  -7.27  -7.27  -7.27  -7.26  -7.26  -7.26  -7.26
         -7.23  -7.23  -7.23  -7.23  -7.07  -7.07  -7.07  -7.07  -7.07  -7.07
         -7.07  -7.07  -6.94  -6.94  -6.94  -6.94  -6.94  -6.94  -6.94  -6.94
         -6.80  -6.80  -6.80  -6.80  -6.60  -6.60  -6.60  -6.60  -6.60  -6.60
         -6.60  -6.60  -6.60  -6.60  -6.60  -6.60  -6.30  -6.30  -6.30  -6.30
         -6.01  -6.01  -6.01  -6.01  -5.93  -5.93  -5.93  -5.93  -5.93  -5.93
         -5.93  -5.93  -5.82  -5.82  -5.82  -5.82  -5.77  -5.77  -5.77  -5.77
         -5.50  -5.50  -5.50  -5.50  -4.95  -4.95  -4.95  -4.95  -4.95  -4.95
         -4.95  -4.95  -4.92  -4.92  -4.92  -4.92  -4.90  -4.90  -4.90  -4.90
         -4.90  -4.90  -4.90  -4.90  -4.90  -4.90  -4.90  -4.90  -3.44  -3.44
         -3.44  -3.44  -2.36  -2.36  -2.36  -2.36  -2.36  -2.36  -2.36  -2.36
         -0.78  -0.78  -0.78  -0.78  -0.78  -0.78  -0.78  -0.78   0.14   0.14
          0.14   0.14
  25  1 -12.88 -11.89 -10.64 -10.64 -10.64 -10.64 -10.25 -10.25 -10.25 -10.25
        -10.05  -9.99  -9.89  -9.88  -9.88  -9.88  -9.86  -9.86  -9.66  -9.66
         -9.66  -9.66  -9.53  -9.47  -9.47  -9.13  -9.13  -9.13  -8.78  -8.78
         -8.78  -8.78  -8.77  -8.77  -8.65  -8.65  -8.65  -8.65  -8.61  -8.61
         -8.61  -8.61  -8.29  -8.29  -8.29  -8.29  -8.21  -8.03  -8.03  -8.03
         -8.03  -7.94  -7.94  -7.94  -7.94  -7.87  -7.87  -7.87  -7.87  -7.86
         -7.86  -7.86  -7.86  -7.85  -7.85  -7.85  -7.85  -7.71  -7.68  -7.68
         -7.68  -7.68  -7.66  -7.66  -7.66  -7.66  -7.51  -7.51  -7.51  -7.51
         -7.47  -7.47  -7.30  -7.30  -7.30  -7.30  -7.03  -7.03  -7.03  -7.03
         -6.96  -6.96  -6.88  -6.88  -6.88  -6.88  -6.74  -6.65  -6.65  -6.50
         -6.50  -6.50  -6.50  -6.35  -6.35  -6.35  -6.35  -6.34  -6.34  -6.34
         -6.34  -6.30  -6.30  -6.30  -6.30  -6.23  -6.23  -6.20  -6.20  -6.20
         -6.20  -6.17  -6.17  -6.17  -6.17  -6.03  -5.89  -5.89  -5.79  -5.69
         -5.69  -5.69  -5.69  -5.64  -5.64  -5.60  -5.60  -5.60  -5.60  -5.32
         -5.32  -5.32  -5.32  -5.28  -5.22  -5.22  -5.22  -5.22  -5.16  -5.16
         -5.08  -5.08  -5.08  -5.08  -5.08  -5.08  -5.03  -4.84  -4.84  -4.84
         -4.84  -4.83  -4.83  -4.60  -4.60  -4.60  -4.60  -4.32  -4.32  -4.32
         -4.32  -3.19  -3.19  -3.19  -3.19  -2.07  -2.07  -2.07  -2.07  -1.72
         -1.68  -1.68  -1.68  -1.68   0.41   0.41   0.41   0.41   1.55   1.55
          2.01   2.01
  26  1 -12.26 -12.26 -11.34 -11.34 -10.30 -10.30 -10.30 -10.30 -10.21 -10.21
        -10.21 -10.21  -9.73  -9.73  -9.65  -9.65  -9.65  -9.65  -9.51  -9.51
         -9.47  -9.47  -9.45  -9.45  -9.23  -9.23  -9.16  -9.16  -9.12  -9.12
         -8.92  -8.92  -8.92  -8.92  -8.92  -8.92  -8.87  -8.87  -8.80  -8.80
         -8.62  -8.62  -8.34  -8.34  -8.34  -8.34  -8.14  -8.14  -8.13  -8.13
         -8.13  -8.13  -8.13  -8.13  -8.02  -8.02  -8.02  -8.02  -7.92  -7.92
         -7.75  -7.75  -7.66  -7.66  -7.66  -7.66  -7.57  -7.57  -7.57  -7.57
         -7.55  -7.55  -7.27  -7.27  -7.26  -7.26  -7.26  -7.26  -7.26  -7.26
         -7.24  -7.24  -7.11  -7.11  -7.11  -7.11  -7.04  -7.04  -7.04  -7.04
         -6.91  -6.91  -6.90  -6.90  -6.87  -6.87  -6.87  -6.87  -6.76  -6.76
         -6.76  -6.76  -6.57  -6.57  -6.43  -6.43  -6.43  -6.43  -6.42  -6.42
         -6.41  -6.41  -6.27  -6.27  -6.19  -6.19  -6.19  -6.19  -6.07  -6.07
         -5.96  -5.96  -5.92  -5.92  -5.73  -5.73  -5.73  -5.73  -5.65  -5.65
         -5.59  -5.59  -5.59  -5.59  -5.59  -5.59  -5.47  -5.47  -5.33  -5.33
         -5.24  -5.24  -5.24  -5.24  -5.22  -5.22  -5.19  -5.19  -5.19  -5.19
         -5.14  -5.14  -5.11  -5.11  -5.11  -5.11  -5.08  -5.08  -5.08  -5.08
         -4.94  -4.94  -4.94  -4.94  -4.83  -4.83  -4.82  -4.82  -4.27  -4.27
         -4.27  -4.27  -3.92  -3.92  -3.51  -3.51  -1.92  -1.92  -0.93  -0.93
         -0.93  -0.93  -0.68  -0.68  -0.55  -0.55  -0.55  -0.55   0.21   0.21
          1.45   1.45
  27  1 -12.26 -12.26 -11.34 -11.34 -10.30 -10.30 -10.30 -10.30 -10.21 -10.21
        -10.21 -10.21  -9.73  -9.73  -9.65  -9.65  -9.65  -9.65  -9.51  -9.51
         -9.47  -9.47  -9.45  -9.45  -9.23  -9.23  -9.16  -9.16  -9.12  -9.12
         -8.92  -8.92  -8.92  -8.92  -8.92  -8.92  -8.87  -8.87  -8.80  -8.80
         -8.62  -8.62  -8.34  -8.34  -8.34  -8.34  -8.14  -8.14  -8.13  -8.13
         -8.13  -8.13  -8.13  -8.13  -8.02  -8.02  -8.02  -8.02  -7.92  -7.92
         -7.75  -7.75  -7.66  -7.66  -7.66  -7.66  -7.57  -7.57  -7.57  -7.57
         -7.55  -7.55  -7.27  -7.27  -7.26  -7.26  -7.26  -7.26  -7.26  -7.26
         -7.24  -7.24  -7.11  -7.11  -7.11  -7.11  -7.04  -7.04  -7.04  -7.04
         -6.91  -6.91  -6.90  -6.90  -6.87  -6.87  -6.87  -6.87  -6.76  -6.76
         -6.76  -6.76  -6.57  -6.57  -6.43  -6.43  -6.43  -6.43  -6.42  -6.42
         -6.41  -6.41  -6.27  -6.27  -6.19  -6.19  -6.19  -6.19  -6.07  -6.07
         -5.96  -5.96  -5.92  -5.92  -5.73  -5.73  -5.73  -5.73  -5.65  -5.65
         -5.59  -5.59  -5.59  -5.59  -5.59  -5.59  -5.47  -5.47  -5.33  -5.33
         -5.24  -5.24  -5.24  -5.24  -5.22  -5.22  -5.19  -5.19  -5.19  -5.19
         -5.14  -5.14  -5.11  -5.11  -5.11  -5.11  -5.08  -5.08  -5.08  -5.08
         -4.94  -4.94  -4.94  -4.94  -4.83  -4.83  -4.82  -4.82  -4.27  -4.27
         -4.27  -4.27  -3.92  -3.92  -3.51  -3.51  -1.92  -1.92  -0.93  -0.93
         -0.93  -0.93  -0.68  -0.68  -0.55  -0.55  -0.55  -0.55   0.21   0.21
          1.45   1.45
  28  1 -11.71 -11.71 -11.71 -11.71 -11.00 -11.00 -11.00 -11.00  -9.66  -9.66
         -9.66  -9.66  -9.44  -9.44  -9.44  -9.44  -9.44  -9.44  -9.44  -9.44
         -9.39  -9.39  -9.39  -9.39  -9.39  -9.39  -9.39  -9.39  -9.38  -9.38
         -9.38  -9.38  -8.64  -8.64  -8.64  -8.64  -8.64  -8.64  -8.64  -8.64
         -8.44  -8.44  -8.44  -8.44  -8.11  -8.11  -8.11  -8.11  -8.11  -8.11
         -8.11  -8.11  -8.01  -8.01  -8.01  -8.01  -7.87  -7.87  -7.87  -7.87
         -7.58  -7.58  -7.58  -7.58  -7.43  -7.43  -7.43  -7.43  -7.34  -7.34
         -7.34  -7.34  -7.29  -7.29  -7.29  -7.29  -7.27  -7.27  -7.27  -7.27
         -7.25  -7.25  -7.25  -7.25  -7.08  -7.08  -7.08  -7.08  -7.08  -7.08
         -7.08  -7.08  -7.00  -7.00  -7.00  -7.00  -7.00  -7.00  -7.00  -7.00
         -6.73  -6.73  -6.73  -6.73  -6.70  -6.70  -6.70  -6.70  -6.58  -6.58
         -6.58  -6.58  -6.58  -6.58  -6.58  -6.58  -6.23  -6.23  -6.23  -6.23
         -6.08  -6.08  -6.08  -6.08  -6.05  -6.05  -6.05  -6.05  -6.05  -6.05
         -6.05  -6.05  -5.85  -5.85  -5.85  -5.85  -5.85  -5.85  -5.85  -5.85
         -5.59  -5.59  -5.59  -5.59  -4.92  -4.92  -4.92  -4.92  -4.92  -4.92
         -4.92  -4.92  -4.90  -4.90  -4.90  -4.90  -4.87  -4.87  -4.87  -4.87
         -4.86  -4.86  -4.86  -4.86  -4.86  -4.86  -4.86  -4.86  -3.09  -3.09
         -3.09  -3.09  -2.23  -2.23  -2.23  -2.23  -2.23  -2.23  -2.23  -2.23
         -0.92  -0.92  -0.92  -0.92  -0.92  -0.92  -0.92  -0.92  -0.16  -0.16
         -0.16  -0.16
  29  1 -12.79 -12.05 -10.57 -10.57 -10.57 -10.57 -10.20 -10.20 -10.20 -10.20
        -10.00 -10.00 -10.00 -10.00  -9.99  -9.97  -9.79  -9.79  -9.76  -9.76
         -9.76  -9.76  -9.49  -9.42  -9.42  -9.24  -9.24  -9.19  -8.89  -8.89
         -8.72  -8.72  -8.72  -8.72  -8.63  -8.63  -8.63  -8.63  -8.58  -8.58
         -8.58  -8.58  -8.33  -8.33  -8.33  -8.33  -8.13  -8.07  -8.07  -8.07
         -8.07  -8.00  -8.00  -8.00  -8.00  -7.86  -7.86  -7.86  -7.86  -7.84
         -7.84  -7.84  -7.84  -7.84  -7.84  -7.84  -7.84  -7.75  -7.70  -7.70
         -7.70  -7.70  -7.64  -7.64  -7.64  -7.64  -7.47  -7.47  -7.47  -7.47
         -7.42  -7.42  -7.37  -7.37  -7.37  -7.37  -7.10  -7.10  -7.10  -7.10
         -7.04  -7.04  -6.67  -6.64  -6.64  -6.64  -6.64  -6.45  -6.45  -6.45
         -6.45  -6.43  -6.43  -6.35  -6.35  -6.35  -6.35  -6.32  -6.32  -6.32
         -6.32  -6.28  -6.28  -6.28  -6.28  -6.28  -6.21  -6.21  -6.21  -6.21
         -6.15  -6.15  -6.15  -6.15  -6.01  -5.92  -5.83  -5.78  -5.78  -5.61
         -5.61  -5.61  -5.61  -5.52  -5.52  -5.50  -5.50  -5.50  -5.50  -5.35
         -5.35  -5.35  -5.35  -5.24  -5.24  -5.24  -5.22  -5.22  -5.22  -5.22
         -5.22  -5.22  -5.14  -5.14  -5.14  -5.14  -5.05  -4.92  -4.92  -4.92
         -4.92  -4.91  -4.91  -4.60  -4.60  -4.60  -4.60  -4.46  -4.46  -4.46
         -4.46  -3.11  -3.11  -3.11  -3.11  -2.54  -1.97  -1.97  -1.97  -1.97
         -1.79  -1.79  -1.79  -1.79   0.11   0.11   0.11   0.11   1.61   1.61
          1.96   1.96
  30  1 -12.18 -12.18 -11.49 -11.49 -10.30 -10.30 -10.30 -10.30 -10.23 -10.23
        -10.23 -10.23  -9.65  -9.65  -9.57  -9.57  -9.57  -9.57  -9.49  -9.49
         -9.43  -9.43  -9.41  -9.41  -9.23  -9.23  -9.18  -9.18  -9.09  -9.09
         -9.02  -9.02  -9.02  -9.02  -9.00  -9.00  -8.85  -8.85  -8.83  -8.83
         -8.73  -8.73  -8.32  -8.32  -8.32  -8.32  -8.23  -8.23  -8.09  -8.09
         -8.07  -8.07  -8.07  -8.07  -8.01  -8.01  -8.01  -8.01  -7.93  -7.93
         -7.64  -7.64  -7.64  -7.64  -7.58  -7.58  -7.57  -7.57  -7.57  -7.57
         -7.46  -7.46  -7.26  -7.26  -7.25  -7.25  -7.23  -7.23  -7.23  -7.23
         -7.23  -7.23  -6.98  -6.98  -6.97  -6.97  -6.97  -6.97  -6.97  -6.97
         -6.97  -6.97  -6.96  -6.96  -6.96  -6.96  -6.94  -6.94  -6.94  -6.94
         -6.74  -6.74  -6.57  -6.57  -6.56  -6.56  -6.50  -6.50  -6.50  -6.50
         -6.47  -6.47  -6.42  -6.42  -6.28  -6.28  -6.28  -6.28  -6.03  -6.03
         -6.00  -6.00  -5.90  -5.90  -5.65  -5.65  -5.64  -5.64  -5.63  -5.63
         -5.56  -5.56  -5.53  -5.53  -5.45  -5.45  -5.45  -5.45  -5.34  -5.34
         -5.26  -5.26  -5.21  -5.21  -5.21  -5.21  -5.19  -5.19  -5.19  -5.19
         -5.12  -5.12  -5.09  -5.09  -5.09  -5.09  -5.06  -5.06  -5.06  -5.06
         -4.96  -4.96  -4.96  -4.96  -4.91  -4.91  -4.88  -4.88  -4.46  -4.46
         -4.46  -4.46  -3.67  -3.67  -3.30  -3.30  -2.10  -2.10  -1.24  -1.24
         -0.73  -0.73  -0.73  -0.73  -0.49  -0.49  -0.49  -0.49   0.39   0.39
          1.33   1.33
  31  1 -12.18 -12.18 -11.49 -11.49 -10.30 -10.30 -10.30 -10.30 -10.23 -10.23
        -10.23 -10.23  -9.65  -9.65  -9.57  -9.57  -9.57  -9.57  -9.49  -9.49
         -9.43  -9.43  -9.41  -9.41  -9.23  -9.23  -9.18  -9.18  -9.09  -9.09
         -9.02  -9.02  -9.02  -9.02  -9.00  -9.00  -8.85  -8.85  -8.83  -8.83
         -8.73  -8.73  -8.32  -8.32  -8.32  -8.32  -8.23  -8.23  -8.09  -8.09
         -8.07  -8.07  -8.07  -8.07  -8.01  -8.01  -8.01  -8.01  -7.93  -7.93
         -7.64  -7.64  -7.64  -7.64  -7.58  -7.58  -7.57  -7.57  -7.57  -7.57
         -7.46  -7.46  -7.26  -7.26  -7.25  -7.25  -7.23  -7.23  -7.23  -7.23
         -7.23  -7.23  -6.98  -6.98  -6.97  -6.97  -6.97  -6.97  -6.97  -6.97
         -6.97  -6.97  -6.96  -6.96  -6.96  -6.96  -6.94  -6.94  -6.94  -6.94
         -6.74  -6.74  -6.57  -6.57  -6.56  -6.56  -6.50  -6.50  -6.50  -6.50
         -6.47  -6.47  -6.42  -6.42  -6.28  -6.28  -6.28  -6.28  -6.03  -6.03
         -6.00  -6.00  -5.90  -5.90  -5.65  -5.65  -5.64  -5.64  -5.63  -5.63
         -5.56  -5.56  -5.53  -5.53  -5.45  -5.45  -5.45  -5.45  -5.34  -5.34
         -5.26  -5.26  -5.21  -5.21  -5.21  -5.21  -5.19  -5.19  -5.19  -5.19
[...]
         -7.31  -7.31  -7.30  -7.30  -7.30  -7.30  -7.29  -7.29  -7.29  -7.29
         -7.29  -7.29  -7.29  -7.29  -7.11  -7.11  -7.11  -7.11  -7.11  -7.11
         -7.11  -7.11  -7.10  -7.10  -7.10  -7.10  -7.10  -7.10  -7.10  -7.10
         -6.92  -6.92  -6.92  -6.92  -6.57  -6.57  -6.57  -6.57  -6.52  -6.52
         -6.52  -6.52  -6.52  -6.52  -6.52  -6.52  -6.25  -6.25  -6.25  -6.25
         -6.25  -6.25  -6.25  -6.25  -6.24  -6.24  -6.24  -6.24  -6.08  -6.08
         -6.08  -6.08  -5.92  -5.92  -5.92  -5.92  -5.89  -5.89  -5.89  -5.89
         -5.75  -5.75  -5.75  -5.75  -4.86  -4.86  -4.86  -4.86  -4.86  -4.86
         -4.86  -4.86  -4.85  -4.85  -4.85  -4.85  -4.83  -4.83  -4.83  -4.83
         -4.83  -4.83  -4.83  -4.83  -4.83  -4.83  -4.83  -4.83  -2.35  -2.35
         -2.35  -2.35  -1.92  -1.92  -1.92  -1.92  -1.92  -1.92  -1.92  -1.92
         -1.24  -1.24  -1.24  -1.24  -1.24  -1.24  -1.24  -1.24  -0.84  -0.84
         -0.84  -0.84
  37  1 -12.59 -12.34 -10.41 -10.41 -10.41 -10.41 -10.21 -10.21 -10.21 -10.21
        -10.08 -10.08 -10.08 -10.08  -9.94  -9.94  -9.93  -9.93  -9.93  -9.93
         -9.63  -9.63  -9.44  -9.44  -9.41  -9.31  -9.28  -9.28  -9.11  -9.11
         -8.63  -8.63  -8.63  -8.63  -8.60  -8.60  -8.60  -8.60  -8.51  -8.51
         -8.51  -8.51  -8.43  -8.43  -8.43  -8.43  -8.11  -8.11  -8.11  -8.11
         -8.09  -8.09  -8.09  -8.09  -7.99  -7.86  -7.85  -7.85  -7.85  -7.85
         -7.84  -7.84  -7.84  -7.84  -7.79  -7.79  -7.79  -7.79  -7.74  -7.74
         -7.74  -7.74  -7.58  -7.58  -7.58  -7.58  -7.49  -7.49  -7.49  -7.49
         -7.37  -7.37  -7.37  -7.37  -7.32  -7.32  -7.24  -7.24  -7.24  -7.24
         -7.19  -7.19  -6.53  -6.40  -6.35  -6.35  -6.35  -6.35  -6.34  -6.34
         -6.34  -6.34  -6.34  -6.34  -6.34  -6.34  -6.26  -6.26  -6.26  -6.26
         -6.19  -6.19  -6.19  -6.19  -6.15  -6.15  -6.15  -6.15  -6.15  -6.15
         -6.15  -6.15  -6.01  -6.01  -5.96  -5.90  -5.70  -5.70  -5.70  -5.70
         -5.60  -5.60  -5.58  -5.58  -5.43  -5.43  -5.43  -5.43  -5.39  -5.39
         -5.29  -5.29  -5.29  -5.29  -5.29  -5.29  -5.27  -5.27  -5.27  -5.27
         -5.17  -5.10  -5.10  -5.10  -5.10  -5.10  -5.09  -5.09  -5.09  -5.00
         -5.00  -5.00  -5.00  -4.74  -4.74  -4.74  -4.74  -4.60  -4.60  -4.60
         -4.60  -3.97  -2.86  -2.86  -2.86  -2.86  -2.49  -2.49  -2.49  -2.49
         -1.18  -1.18  -1.18  -1.18  -0.54  -0.54  -0.54  -0.54   1.72   1.72
          1.84   1.84
  38  1 -11.99 -11.99 -11.76 -11.76 -10.28 -10.28 -10.28 -10.28 -10.26 -10.26
        -10.26 -10.26  -9.47  -9.47  -9.43  -9.43  -9.40  -9.40  -9.40  -9.40
         -9.38  -9.38  -9.36  -9.36  -9.34  -9.34  -9.25  -9.25  -9.22  -9.22
         -9.22  -9.22  -9.06  -9.06  -9.02  -9.02  -8.94  -8.94  -8.91  -8.91
         -8.63  -8.63  -8.43  -8.43  -8.25  -8.25  -8.25  -8.25  -8.16  -8.16
         -8.16  -8.16  -8.01  -8.01  -7.96  -7.96  -7.72  -7.72  -7.72  -7.72
         -7.62  -7.62  -7.62  -7.62  -7.59  -7.59  -7.59  -7.59  -7.37  -7.37
         -7.37  -7.37  -7.25  -7.25  -7.24  -7.24  -7.24  -7.24  -7.21  -7.21
         -7.18  -7.18  -7.14  -7.14  -7.14  -7.14  -7.10  -7.10  -7.05  -7.05
         -7.05  -7.05  -6.89  -6.89  -6.86  -6.86  -6.83  -6.83  -6.83  -6.83
         -6.72  -6.72  -6.72  -6.72  -6.66  -6.66  -6.66  -6.66  -6.52  -6.52
         -6.48  -6.48  -6.48  -6.48  -6.46  -6.46  -6.45  -6.45  -6.21  -6.21
         -5.86  -5.86  -5.82  -5.82  -5.74  -5.74  -5.70  -5.70  -5.50  -5.50
         -5.49  -5.49  -5.39  -5.39  -5.37  -5.37  -5.30  -5.30  -5.20  -5.20
         -5.20  -5.20  -5.19  -5.19  -5.19  -5.19  -5.14  -5.14  -5.14  -5.14
         -5.09  -5.09  -5.06  -5.06  -5.06  -5.06  -5.06  -5.06  -5.05  -5.05
         -5.05  -5.05  -4.98  -4.98  -4.98  -4.98  -4.98  -4.98  -4.79  -4.79
         -4.79  -4.79  -3.06  -3.06  -2.88  -2.88  -2.48  -2.48  -2.25  -2.25
         -0.49  -0.49  -0.49  -0.49  -0.42  -0.42  -0.42  -0.42   0.74   0.74
          1.06   1.06
  39  1 -11.99 -11.99 -11.76 -11.76 -10.28 -10.28 -10.28 -10.28 -10.26 -10.26
        -10.26 -10.26  -9.47  -9.47  -9.43  -9.43  -9.40  -9.40  -9.40  -9.40
         -9.38  -9.38  -9.36  -9.36  -9.34  -9.34  -9.25  -9.25  -9.22  -9.22
         -9.22  -9.22  -9.06  -9.06  -9.02  -9.02  -8.94  -8.94  -8.91  -8.91
         -8.63  -8.63  -8.43  -8.43  -8.25  -8.25  -8.25  -8.25  -8.16  -8.16
         -8.16  -8.16  -8.01  -8.01  -7.96  -7.96  -7.72  -7.72  -7.72  -7.72
         -7.62  -7.62  -7.62  -7.62  -7.59  -7.59  -7.59  -7.59  -7.37  -7.37
         -7.37  -7.37  -7.25  -7.25  -7.24  -7.24  -7.24  -7.24  -7.21  -7.21
         -7.18  -7.18  -7.14  -7.14  -7.14  -7.14  -7.10  -7.10  -7.05  -7.05
         -7.05  -7.05  -6.89  -6.89  -6.86  -6.86  -6.83  -6.83  -6.83  -6.83
         -6.72  -6.72  -6.72  -6.72  -6.66  -6.66  -6.66  -6.66  -6.52  -6.52
         -6.48  -6.48  -6.48  -6.48  -6.46  -6.46  -6.45  -6.45  -6.21  -6.21
         -5.86  -5.86  -5.82  -5.82  -5.74  -5.74  -5.70  -5.70  -5.50  -5.50
         -5.49  -5.49  -5.39  -5.39  -5.37  -5.37  -5.30  -5.30  -5.20  -5.20
         -5.20  -5.20  -5.19  -5.19  -5.19  -5.19  -5.14  -5.14  -5.14  -5.14
         -5.09  -5.09  -5.06  -5.06  -5.06  -5.06  -5.06  -5.06  -5.05  -5.05
         -5.05  -5.05  -4.98  -4.98  -4.98  -4.98  -4.98  -4.98  -4.79  -4.79
         -4.79  -4.79  -3.06  -3.06  -2.88  -2.88  -2.48  -2.48  -2.25  -2.25
         -0.49  -0.49  -0.49  -0.49  -0.42  -0.42  -0.42  -0.42   0.74   0.74
          1.06   1.06
  40  1 -11.49 -11.49 -11.49 -11.49 -11.31 -11.31 -11.31 -11.31  -9.48  -9.48
         -9.48  -9.48  -9.45  -9.45  -9.45  -9.45  -9.45  -9.45  -9.45  -9.45
         -9.43  -9.43  -9.43  -9.43  -9.43  -9.43  -9.43  -9.43  -9.41  -9.41
         -9.41  -9.41  -8.35  -8.35  -8.35  -8.35  -8.35  -8.35  -8.35  -8.35
         -8.32  -8.32  -8.32  -8.32  -8.21  -8.21  -8.21  -8.21  -8.20  -8.20
         -8.20  -8.20  -8.20  -8.20  -8.20  -8.20  -7.75  -7.75  -7.75  -7.75
         -7.66  -7.66  -7.66  -7.66  -7.32  -7.32  -7.32  -7.32  -7.31  -7.31
         -7.31  -7.31  -7.30  -7.30  -7.30  -7.30  -7.30  -7.30  -7.30  -7.30
         -7.22  -7.22  -7.22  -7.22  -7.12  -7.12  -7.12  -7.12  -7.12  -7.12
         -7.12  -7.12  -7.12  -7.12  -7.12  -7.12  -7.12  -7.12  -7.12  -7.12
         -7.02  -7.02  -7.02  -7.02  -6.49  -6.49  -6.49  -6.49  -6.47  -6.47
         -6.47  -6.47  -6.47  -6.47  -6.47  -6.47  -6.34  -6.34  -6.34  -6.34
         -6.34  -6.34  -6.34  -6.34  -6.32  -6.32  -6.32  -6.32  -6.00  -6.00
         -6.00  -6.00  -5.93  -5.93  -5.93  -5.93  -5.91  -5.91  -5.91  -5.91
         -5.84  -5.84  -5.84  -5.84  -4.84  -4.84  -4.84  -4.84  -4.84  -4.84
         -4.84  -4.84  -4.84  -4.84  -4.84  -4.84  -4.83  -4.83  -4.83  -4.83
         -4.82  -4.82  -4.82  -4.82  -4.82  -4.82  -4.82  -4.82  -1.97  -1.97
         -1.97  -1.97  -1.75  -1.75  -1.75  -1.75  -1.75  -1.75  -1.75  -1.75
         -1.41  -1.41  -1.41  -1.41  -1.41  -1.41  -1.41  -1.41  -1.21  -1.21
         -1.21  -1.21
  41  1 -12.47 -12.47 -10.31 -10.31 -10.31 -10.31 -10.31 -10.31 -10.31 -10.31
        -10.01 -10.01 -10.01 -10.01 -10.01 -10.01 -10.01 -10.01  -9.94  -9.94
         -9.54  -9.54  -9.54  -9.54  -9.36  -9.36  -9.20  -9.20  -9.20  -9.20
         -8.61  -8.61  -8.61  -8.61  -8.61  -8.61  -8.61  -8.61  -8.47  -8.47
         -8.47  -8.47  -8.47  -8.47  -8.47  -8.47  -8.11  -8.11  -8.11  -8.11
         -8.11  -8.11  -8.11  -8.11  -7.92  -7.92  -7.85  -7.85  -7.85  -7.85
         -7.85  -7.85  -7.85  -7.85  -7.77  -7.77  -7.77  -7.77  -7.77  -7.77
         -7.77  -7.77  -7.54  -7.54  -7.54  -7.54  -7.54  -7.54  -7.54  -7.54
         -7.31  -7.31  -7.31  -7.31  -7.31  -7.31  -7.31  -7.31  -7.26  -7.26
         -7.26  -7.26  -6.46  -6.46  -6.34  -6.34  -6.34  -6.34  -6.34  -6.34
         -6.34  -6.34  -6.30  -6.30  -6.30  -6.30  -6.30  -6.30  -6.30  -6.30
         -6.16  -6.16  -6.16  -6.16  -6.16  -6.16  -6.16  -6.16  -5.93  -5.93
         -5.91  -5.91  -5.91  -5.91  -5.91  -5.91  -5.91  -5.91  -5.80  -5.80
         -5.80  -5.80  -5.48  -5.48  -5.48  -5.48  -5.35  -5.35  -5.35  -5.35
         -5.35  -5.35  -5.35  -5.35  -5.19  -5.19  -5.19  -5.19  -5.19  -5.19
         -5.19  -5.19  -5.19  -5.19  -5.19  -5.19  -5.14  -5.14  -4.87  -4.87
         -4.87  -4.87  -4.87  -4.87  -4.87  -4.87  -4.60  -4.60  -4.60  -4.60
         -4.57  -4.57  -2.69  -2.69  -2.69  -2.69  -2.69  -2.69  -2.69  -2.69
         -0.86  -0.86  -0.86  -0.86  -0.86  -0.86  -0.86  -0.86   1.78   1.78
          1.78   1.78
  42  1 -11.88 -11.88 -11.88 -11.88 -10.27 -10.27 -10.27 -10.27 -10.27 -10.27
        -10.27 -10.27  -9.39  -9.39  -9.39  -9.39  -9.36  -9.36  -9.36  -9.36
         -9.36  -9.36  -9.36  -9.36  -9.31  -9.31  -9.31  -9.31  -9.31  -9.31
         -9.31  -9.31  -8.99  -8.99  -8.99  -8.99  -8.99  -8.99  -8.99  -8.99
         -8.53  -8.53  -8.53  -8.53  -8.21  -8.21  -8.21  -8.21  -8.21  -8.21
         -8.21  -8.21  -7.98  -7.98  -7.98  -7.98  -7.61  -7.61  -7.61  -7.61
         -7.61  -7.61  -7.61  -7.61  -7.54  -7.54  -7.54  -7.54  -7.54  -7.54
         -7.54  -7.54  -7.24  -7.24  -7.24  -7.24  -7.15  -7.15  -7.15  -7.15
         -7.10  -7.10  -7.10  -7.10  -7.10  -7.10  -7.10  -7.10  -7.05  -7.05
         -7.05  -7.05  -7.05  -7.05  -7.05  -7.05  -6.75  -6.75  -6.75  -6.75
         -6.75  -6.75  -6.75  -6.75  -6.59  -6.59  -6.59  -6.59  -6.59  -6.59
         -6.59  -6.59  -6.49  -6.49  -6.49  -6.49  -6.32  -6.32  -6.32  -6.32
         -5.80  -5.80  -5.80  -5.80  -5.77  -5.77  -5.77  -5.77  -5.44  -5.44
         -5.44  -5.44  -5.43  -5.43  -5.43  -5.43  -5.19  -5.19  -5.19  -5.19
         -5.19  -5.19  -5.19  -5.19  -5.14  -5.14  -5.14  -5.14  -5.14  -5.14
         -5.14  -5.14  -5.05  -5.05  -5.05  -5.05  -5.05  -5.05  -5.05  -5.05
         -5.03  -5.03  -5.03  -5.03  -4.92  -4.92  -4.92  -4.92  -4.92  -4.92
         -4.92  -4.92  -2.68  -2.68  -2.68  -2.68  -2.68  -2.68  -2.68  -2.68
         -0.43  -0.43  -0.43  -0.43  -0.43  -0.43  -0.43  -0.43   0.90   0.90
          0.90   0.90
  43  1 -11.88 -11.88 -11.88 -11.88 -10.27 -10.27 -10.27 -10.27 -10.27 -10.27
        -10.27 -10.27  -9.39  -9.39  -9.39  -9.39  -9.36  -9.36  -9.36  -9.36
         -9.36  -9.36  -9.36  -9.36  -9.31  -9.31  -9.31  -9.31  -9.31  -9.31
         -9.31  -9.31  -8.99  -8.99  -8.99  -8.99  -8.99  -8.99  -8.99  -8.99
         -8.53  -8.53  -8.53  -8.53  -8.21  -8.21  -8.21  -8.21  -8.21  -8.21
         -8.21  -8.21  -7.98  -7.98  -7.98  -7.98  -7.61  -7.61  -7.61  -7.61
         -7.61  -7.61  -7.61  -7.61  -7.54  -7.54  -7.54  -7.54  -7.54  -7.54
         -7.54  -7.54  -7.24  -7.24  -7.24  -7.24  -7.15  -7.15  -7.15  -7.15
         -7.10  -7.10  -7.10  -7.10  -7.10  -7.10  -7.10  -7.10  -7.05  -7.05
         -7.05  -7.05  -7.05  -7.05  -7.05  -7.05  -6.75  -6.75  -6.75  -6.75
         -6.75  -6.75  -6.75  -6.75  -6.59  -6.59  -6.59  -6.59  -6.59  -6.59
         -6.59  -6.59  -6.49  -6.49  -6.49  -6.49  -6.32  -6.32  -6.32  -6.32
         -5.80  -5.80  -5.80  -5.80  -5.77  -5.77  -5.77  -5.77  -5.44  -5.44
         -5.44  -5.44  -5.43  -5.43  -5.43  -5.43  -5.19  -5.19  -5.19  -5.19
         -5.19  -5.19  -5.19  -5.19  -5.14  -5.14  -5.14  -5.14  -5.14  -5.14
         -5.14  -5.14  -5.05  -5.05  -5.05  -5.05  -5.05  -5.05  -5.05  -5.05
         -5.03  -5.03  -5.03  -5.03  -4.92  -4.92  -4.92  -4.92  -4.92  -4.92
         -4.92  -4.92  -2.68  -2.68  -2.68  -2.68  -2.68  -2.68  -2.68  -2.68
         -0.43  -0.43  -0.43  -0.43  -0.43  -0.43  -0.43  -0.43   0.90   0.90
          0.90   0.90
  44  1 -11.41 -11.41 -11.41 -11.41 -11.41 -11.41 -11.41 -11.41  -9.44  -9.44
         -9.44  -9.44  -9.44  -9.44  -9.44  -9.44  -9.44  -9.44  -9.44  -9.44
         -9.44  -9.44  -9.44  -9.44  -9.44  -9.44  -9.44  -9.44  -9.44  -9.44
         -9.44  -9.44  -8.27  -8.27  -8.27  -8.27  -8.27  -8.27  -8.27  -8.27
         -8.27  -8.27  -8.27  -8.27  -8.27  -8.27  -8.27  -8.27  -8.27  -8.27
         -8.27  -8.27  -8.27  -8.27  -8.27  -8.27  -7.70  -7.70  -7.70  -7.70
         -7.70  -7.70  -7.70  -7.70  -7.31  -7.31  -7.31  -7.31  -7.31  -7.31
         -7.31  -7.31  -7.31  -7.31  -7.31  -7.31  -7.31  -7.31  -7.31  -7.31
         -7.13  -7.13  -7.13  -7.13  -7.13  -7.13  -7.13  -7.13  -7.12  -7.12
         -7.12  -7.12  -7.12  -7.12  -7.12  -7.12  -7.12  -7.12  -7.12  -7.12
         -7.12  -7.12  -7.12  -7.12  -6.41  -6.41  -6.41  -6.41  -6.41  -6.41
         -6.41  -6.41  -6.41  -6.41  -6.41  -6.41  -6.41  -6.41  -6.41  -6.41
         -6.41  -6.41  -6.41  -6.41  -6.41  -6.41  -6.41  -6.41  -5.92  -5.92
         -5.92  -5.92  -5.92  -5.92  -5.92  -5.92  -5.92  -5.92  -5.92  -5.92
         -5.92  -5.92  -5.92  -5.92  -4.83  -4.83  -4.83  -4.83  -4.83  -4.83
         -4.83  -4.83  -4.83  -4.83  -4.83  -4.83  -4.83  -4.83  -4.83  -4.83
         -4.83  -4.83  -4.83  -4.83  -4.83  -4.83  -4.83  -4.83  -1.59  -1.59
         -1.59  -1.59  -1.59  -1.59  -1.59  -1.59  -1.58  -1.58  -1.58  -1.58
         -1.58  -1.58  -1.58  -1.58  -1.58  -1.58  -1.58  -1.58  -1.58  -1.58
         -1.58  -1.58
siesta: Fermi energy =      -2.517827 eV

siesta: Program's energy decomposition (eV):
siesta:-Eions   =  -38560.014795
siesta: Ena     =    2136.575093
siesta: Ekin    =   21476.566118
siesta: Enl     =   -8194.323124
siesta: DEna    =      27.133092
siesta: DUscf   =       0.123900
siesta: DUext   =       0.000000
siesta: Exc     =  -13364.379576
siesta: eta*DQ  =       0.000000
siesta: Emadel  =       0.000000
siesta: Ekinion =       0.000000
siesta: Eharris =  -36478.319315
siesta: Eso     =       0.000000
siesta: Etot    =  -36478.319292
siesta: FreeEng =  -36478.337846

siesta: Final energy (eV):
siesta:       Kinetic =   21476.566118
siesta:       Hartree =    3780.103435
siesta:    Ext. field =       0.000000
siesta:   Exch.-corr. =  -13364.379576
siesta:  Ion-electron =  -24174.528091
siesta:       Ion-ion =  -24196.081178
siesta:       Ekinion =       0.000000
siesta:         Total =  -36478.319292

siesta: Stress tensor (static) (eV/Ang**3):
siesta:    -0.022335   -0.000000   -0.000000
siesta:    -0.000000   -0.022335   -0.000000
siesta:    -0.000000   -0.000000   -0.014696

siesta: Cell volume =        579.259437 Ang**3

siesta: Pressure (static):
siesta:                Solid            Molecule  Units
siesta:           0.00021552          0.00021531  Ry/Bohr**3
siesta:           0.01978858          0.01976921  eV/Ang**3
siesta:          31.70514746         31.67411400  kBar

siesta: Total spin polarization (Qup-Qdown) =    0.000000
siesta: Spin vector =    0.000000    0.000000    0.000000
siesta: No SpinPolK block detected...
The transport is along the z direction.
 
* Maximum dynamic memory allocated : Node    0 =    22 MB
* Maximum dynamic memory allocated : Node    1 =    21 MB
* Maximum dynamic memory allocated : Node    2 =    21 MB
* Maximum dynamic memory allocated : Node    3 =    21 MB
* Maximum dynamic memory allocated : Node    4 =    21 MB
* Maximum dynamic memory allocated : Node    5 =    21 MB
* Maximum dynamic memory allocated : Node    6 =    21 MB
* Maximum dynamic memory allocated : Node    7 =    21 MB
* Maximum dynamic memory allocated : Node    8 =    21 MB
* Maximum dynamic memory allocated : Node    9 =    21 MB
* Maximum dynamic memory allocated : Node   10 =    21 MB
* Maximum dynamic memory allocated : Node   11 =    21 MB
* Maximum dynamic memory allocated : Node   12 =    21 MB
* Maximum dynamic memory allocated : Node   13 =    21 MB
* Maximum dynamic memory allocated : Node   14 =    21 MB
* Maximum dynamic memory allocated : Node   15 =    21 MB
* Maximum dynamic memory allocated : Node   16 =    21 MB
* Maximum dynamic memory allocated : Node   17 =    21 MB
* Maximum dynamic memory allocated : Node   18 =    21 MB
* Maximum dynamic memory allocated : Node   19 =    21 MB
* Maximum dynamic memory allocated : Node   20 =    21 MB
* Maximum dynamic memory allocated : Node   21 =    21 MB
* Maximum dynamic memory allocated : Node   22 =    21 MB
* Maximum dynamic memory allocated : Node   23 =    21 MB
* Maximum dynamic memory allocated : Node   24 =    21 MB
* Maximum dynamic memory allocated : Node   25 =    21 MB
* Maximum dynamic memory allocated : Node   26 =    21 MB
* Maximum dynamic memory allocated : Node   27 =    21 MB
* Maximum dynamic memory allocated : Node   28 =    21 MB
* Maximum dynamic memory allocated : Node   29 =    21 MB
* Maximum dynamic memory allocated : Node   30 =    21 MB
* Maximum dynamic memory allocated : Node   31 =    21 MB
* Maximum dynamic memory allocated : Node   32 =    21 MB
* Maximum dynamic memory allocated : Node   33 =    21 MB
* Maximum dynamic memory allocated : Node   34 =    21 MB
* Maximum dynamic memory allocated : Node   35 =    21 MB
* Maximum dynamic memory allocated : Node   36 =    21 MB
* Maximum dynamic memory allocated : Node   37 =    20 MB
* Maximum dynamic memory allocated : Node   38 =    20 MB
* Maximum dynamic memory allocated : Node   39 =    21 MB
* Maximum dynamic memory allocated : Node   40 =    21 MB
* Maximum dynamic memory allocated : Node   41 =    21 MB
* Maximum dynamic memory allocated : Node   42 =    21 MB
* Maximum dynamic memory allocated : Node   43 =    21 MB
* Maximum dynamic memory allocated : Node   44 =    20 MB
* Maximum dynamic memory allocated : Node   45 =    21 MB
* Maximum dynamic memory allocated : Node   46 =    21 MB
* Maximum dynamic memory allocated : Node   47 =    21 MB
* Maximum dynamic memory allocated : Node   48 =    21 MB
* Maximum dynamic memory allocated : Node   49 =    21 MB
* Maximum dynamic memory allocated : Node   50 =    21 MB
* Maximum dynamic memory allocated : Node   51 =    21 MB
* Maximum dynamic memory allocated : Node   52 =    20 MB
* Maximum dynamic memory allocated : Node   53 =    21 MB
* Maximum dynamic memory allocated : Node   54 =    21 MB
* Maximum dynamic memory allocated : Node   55 =    20 MB
* Maximum dynamic memory allocated : Node   56 =    21 MB
* Maximum dynamic memory allocated : Node   57 =    21 MB
* Maximum dynamic memory allocated : Node   58 =    21 MB
* Maximum dynamic memory allocated : Node   59 =    21 MB
* Maximum dynamic memory allocated : Node   60 =    21 MB
* Maximum dynamic memory allocated : Node   61 =    21 MB
* Maximum dynamic memory allocated : Node   62 =    20 MB
* Maximum dynamic memory allocated : Node   63 =    21 MB
* Maximum memory occured during bulktrans                     

timer: CPU execution times:
timer:  Routine       Calls   Time/call    Tot.time        %
timer:  siesta            1    2488.146    2488.146   100.00
timer:  Setup             1       8.425       8.425     0.34
timer:  bands             1       0.006       0.006     0.00
timer:  writewave         1       0.026       0.026     0.00
timer:  KSV_init          1       0.008       0.008     0.00
timer:  IterMD            1    2371.995    2371.995    95.33
timer:  hsparse           2       1.938       3.876     0.16
timer:  overfsm           2       1.352       2.704     0.11
timer:  IterSCF           7     337.265    2360.854    94.88
timer:  kinefsm           2       1.104       2.208     0.09
timer:  nlefsm            2      41.915      83.830     3.37
timer:  DHSCF             8      26.320     210.561     8.46
timer:  DHSCF1            1       4.042       4.042     0.16
timer:  DHSCF2            1      69.745      69.745     2.80
timer:  REORD            86       0.002       0.135     0.01
timer:  POISON            9       0.227       2.047     0.08
timer:  DHSCF3            8      14.808     118.463     4.76
timer:  rhoofd            8       5.164      41.315     1.66
timer:  CELLXC            8       0.074       0.594     0.02
timer:  vmat              7       7.812      54.681     2.20
timer:  diagon            6     335.881    2015.285    81.00
timer:  cdiag           528       3.657    1930.653    77.59
timer:  DHSCF4            1      17.779      17.779     0.71
timer:  dfscf             1       8.894       8.894     0.36
  
>> End of run:   3-NOV-2023  12:16:50
