ATOMS
H             0.00000000      0.00000000     -0.00998254             0.70710678     -0.00005061     -0.00001613
H             0.00000000      0.00000000      0.73998166             0.70710678     -0.00005061     -0.00001613
