ATOMS
H             0.00000000      0.00000000     -0.00998254             0.70710657      0.00052999      0.00012350
H             0.00000000      0.00000000      0.73998166            -0.70710657     -0.00052999     -0.00012350
