ATOMS
H             0.00000000      0.00000000     -0.00998254             0.00000298      0.25224085     -0.66058652
H             0.00000000      0.00000000      0.73998166             0.00000298      0.25224085     -0.66058652
