 DBCSR| CPU Multiplication driver                                           XSMM
 DBCSR| Multrec recursion limit                                              512
 DBCSR| Multiplication stack size                                           1000
 DBCSR| Maximum elements for images                                    UNLIMITED
 DBCSR| Multiplicative factor virtual images                                   1
 DBCSR| Use multiplication densification                                       T
 DBCSR| Multiplication size stacks                                             3
 DBCSR| Use memory pool for CPU allocation                                     F
 DBCSR| Number of 3D layers                                               SINGLE
 DBCSR| Use MPI memory allocation                                              F
 DBCSR| Use RMA algorithm                                                      F
 DBCSR| Use Communication thread                                               T
 DBCSR| Communication thread load                                             87
 DBCSR| MPI: My node id                                                        0
 DBCSR| MPI: Number of nodes                                                 240
 DBCSR| OMP: Current number of threads                                         1
 DBCSR| OMP: Max number of threads                                             1
 DBCSR| Split modifier for TAS multiplication algorithm                  1.0E+00


  **** **** ******  **  PROGRAM STARTED AT               2023-03-22 11:59:23.796
 ***** ** ***  *** **   PROGRAM STARTED ON                 cn1144.scarf.rl.ac.uk
 **    ****   ******    PROGRAM STARTED BY                             scarf1157
 ***** **    ** ** **   PROGRAM PROCESS ID                                 25887
  **** **  *******  **  PROGRAM STARTED IN /work4/scd/scarf1157/work/testing/cp2
                                           k-smeagol/bdt/cp2k/hollow-site/transp
                                           ort-cp2k/5-4/geometry-ordered/3x3-4/s
                                           z/bulk_layers-4/transmission/exp/capa
                                           citor/sergey-equal/auto/kpoints-20_te
                                           st/sergey_old_kpoints-2-2-20_hlb-auto

 CP2K| version string:                 CP2K version 2022.1 (Development Version)
 CP2K| source code revision number:                                  git:58fcd6f
 CP2K| cp2kflags: omp fftw3 libxc parallel mpi3 scalapack xsmm spglib           
 CP2K| is freely available from                            https://www.cp2k.org/
 CP2K| Program compiled at                          Mon 23 Jan 15:25:49 GMT 2023
 CP2K| Program compiled on                                 cn1108.scarf.rl.ac.uk
 CP2K| Program compiled for                                                local
 CP2K| Data directory path    /home/vol07/scarf1157/code/smeagol/cp2k-smeagol/sc
 CP2K| Input file name                                                  3_0V.inp

 GLOBAL| Force Environment number                                              1
 GLOBAL| Basis set file name                                        BASIS_MOLOPT
 GLOBAL| Potential file name                                      GTH_POTENTIALS
 GLOBAL| MM Potential file name                                     MM_POTENTIAL
 GLOBAL| Coordinate file name                                             em.xyz
 GLOBAL| Method name                                                        CP2K
 GLOBAL| Project name                                                         0V
 GLOBAL| Run type                                                         ENERGY
 GLOBAL| FFT library                                                       FFTW3
 GLOBAL| Diagonalization library                                       ScaLAPACK
 GLOBAL| Orthonormality check for eigenvectors                          DISABLED
 GLOBAL| Matrix multiplication library                                 ScaLAPACK
 GLOBAL| All-to-all communication in single precision                          F
 GLOBAL| FFTs using library dependent lengths                                  T
 GLOBAL| Grid backend                                                       AUTO
 GLOBAL| Global print level                                               MEDIUM
 GLOBAL| MPI I/O enabled                                                       T
 GLOBAL| Total number of message passing processes                           240
 GLOBAL| Number of threads for this process                                    1
 GLOBAL| This output is from process                                           0
 GLOBAL| Stack size for threads created by OpenMP (OMP_STACKSIZE)        default
 GLOBAL| CPU model name                         AMD EPYC 7502P 32-Core Processor
 GLOBAL| CPUID                                                              1002

 MEMORY| system memory details [Kb]
 MEMORY|                        rank 0           min           max       average
 MEMORY| MemTotal            263896984     263896980     263896984     263896983
 MEMORY| MemFree             169168652     111236504     246585268     198009434
 MEMORY| Buffers                  2568          2424          2568          2547
 MEMORY| Cached               75369368       1992268     136541360      49788184
 MEMORY| Slab                  1391400        799040       1504200       1173057
 MEMORY| SReclaimable           851964        355112        967532        665713
 MEMORY| MemLikelyFree       245392552     245392552     249068864     248465879


 *** Fundamental physical constants (SI units) ***

 *** Literature: B. J. Mohr and B. N. Taylor,
 ***             CODATA recommended values of the fundamental physical
 ***             constants: 2006, Web Version 5.1
 ***             http://physics.nist.gov/constants

 Speed of light in vacuum [m/s]                             2.99792458000000E+08
 Magnetic constant or permeability of vacuum [N/A**2]       1.25663706143592E-06
 Electric constant or permittivity of vacuum [F/m]          8.85418781762039E-12
 Planck constant (h) [J*s]                                  6.62606896000000E-34
 Planck constant (h-bar) [J*s]                              1.05457162825177E-34
 Elementary charge [C]                                      1.60217648700000E-19
 Electron mass [kg]                                         9.10938215000000E-31
 Electron g factor [ ]                                     -2.00231930436220E+00
 Proton mass [kg]                                           1.67262163700000E-27
 Fine-structure constant                                    7.29735253760000E-03
 Rydberg constant [1/m]                                     1.09737315685270E+07
 Avogadro constant [1/mol]                                  6.02214179000000E+23
 Boltzmann constant [J/K]                                   1.38065040000000E-23
 Atomic mass unit [kg]                                      1.66053878200000E-27
 Bohr radius [m]                                            5.29177208590000E-11

 *** Conversion factors ***

 [u] -> [a.u.]                                              1.82288848426455E+03
 [Angstrom] -> [Bohr] = [a.u.]                              1.88972613288564E+00
 [a.u.] = [Bohr] -> [Angstrom]                              5.29177208590000E-01
 [a.u.] -> [s]                                              2.41888432650478E-17
 [a.u.] -> [fs]                                             2.41888432650478E-02
 [a.u.] -> [J]                                              4.35974393937059E-18
 [a.u.] -> [N]                                              8.23872205491840E-08
 [a.u.] -> [K]                                              3.15774647902944E+05
 [a.u.] -> [kJ/mol]                                         2.62549961709828E+03
 [a.u.] -> [kcal/mol]                                       6.27509468713739E+02
 [a.u.] -> [Pa]                                             2.94210107994716E+13
 [a.u.] -> [bar]                                            2.94210107994716E+08
 [a.u.] -> [atm]                                            2.90362800883016E+08
 [a.u.] -> [eV]                                             2.72113838565563E+01
 [a.u.] -> [Hz]                                             6.57968392072181E+15
 [a.u.] -> [1/cm] (wave numbers)                            2.19474631370540E+05
 [a.u./Bohr**2] -> [1/cm]                                   5.14048714338585E+03
 

 CELL_TOP| Volume [angstrom^3]:                                      2357.480286
 CELL_TOP| Vector a [angstrom     8.336     0.000     0.000   |a| =     8.336000
 CELL_TOP| Vector b [angstrom     0.000     8.336     0.000   |b| =     8.336000
 CELL_TOP| Vector c [angstrom     0.000     0.000    33.926   |c| =    33.926000
 CELL_TOP| Angle (b,c), alpha [degree]:                                90.000000
 CELL_TOP| Angle (a,c), beta  [degree]:                                90.000000
 CELL_TOP| Angle (a,b), gamma [degree]:                                90.000000
 CELL_TOP| Numerically orthorhombic:                                         YES
 CELL_TOP| Periodicity                                                       XYZ

 GENERATE|  Preliminary Number of Bonds generated:                             0
 GENERATE|  Achieved consistency in connectivity generation.

 CELL| Volume [angstrom^3]:                                          2357.480286
 CELL| Vector a [angstrom]:       8.336     0.000     0.000   |a| =     8.336000
 CELL| Vector b [angstrom]:       0.000     8.336     0.000   |b| =     8.336000
 CELL| Vector c [angstrom]:       0.000     0.000    33.926   |c| =    33.926000
 CELL| Angle (b,c), alpha [degree]:                                    90.000000
 CELL| Angle (a,c), beta  [degree]:                                    90.000000
 CELL| Angle (a,b), gamma [degree]:                                    90.000000
 CELL| Numerically orthorhombic:                                             YES
 CELL| Periodicity                                                           XYZ

 CELL_REF| Volume [angstrom^3]:                                      2357.480286
 CELL_REF| Vector a [angstrom     8.336     0.000     0.000   |a| =     8.336000
 CELL_REF| Vector b [angstrom     0.000     8.336     0.000   |b| =     8.336000
 CELL_REF| Vector c [angstrom     0.000     0.000    33.926   |c| =    33.926000
 CELL_REF| Angle (b,c), alpha [degree]:                                90.000000
 CELL_REF| Angle (a,c), beta  [degree]:                                90.000000
 CELL_REF| Angle (a,b), gamma [degree]:                                90.000000
 CELL_REF| Numerically orthorhombic:                                         YES
 CELL_REF| Periodicity                                                       XYZ

 *******************************************************************************
                                    Kpoints
 *******************************************************************************
 BRILLOUIN| K-point scheme                                        Monkhorst-Pack
 BRILLOUIN| K-Point grid                                             2    2    1
 BRILLOUIN| Accuracy in Symmetry determination                      0.100000E-07
 BRILLOUIN| K-Point point group symmetrization                               OFF
 BRILLOUIN| Wavefunction type                                            COMPLEX
 BRILLOUIN| Use full k-point grid     
 BRILLOUIN| List of Kpoints [2 Pi/Bohr]                                        4
 BRILLOUIN| Number           Weight            X              Y              Z
 BRILLOUIN|     1           0.25000       -0.25000       -0.25000        0.00000
 BRILLOUIN|     2           0.25000       -0.25000        0.25000        0.00000
 BRILLOUIN|     3           0.25000        0.25000       -0.25000        0.00000
 BRILLOUIN|     4           0.25000        0.25000        0.25000        0.00000
 *******************************************************************************

 *******************************************************************************
 *******************************************************************************
 **                                                                           **
 **     #####                         ##              ##                      **
 **    ##   ##            ##          ##              ##                      **
 **   ##     ##                       ##            ######                    **
 **   ##     ##  ##   ##  ##   #####  ##  ##   ####   ##    #####    #####    **
 **   ##     ##  ##   ##  ##  ##      ## ##   ##      ##   ##   ##  ##   ##   **
 **   ##  ## ##  ##   ##  ##  ##      ####     ###    ##   ######   ######    **
 **    ##  ###   ##   ##  ##  ##      ## ##      ##   ##   ##       ##        **
 **     #######   #####   ##   #####  ##  ##  ####    ##    #####   ##        **
 **           ##                                                    ##        **
 **                                                                           **
 **                                                ... make the atoms dance   **
 **                                                                           **
 **            Copyright (C) by CP2K developers group (2000-2022)             **
 **                      J. Chem. Phys. 152, 194103 (2020)                    **
 **                                                                           **
 *******************************************************************************

 DFT| Spin restricted Kohn-Sham (RKS) calculation                            RKS
 DFT| Multiplicity                                                             1
 DFT| Number of spin states                                                    1
 DFT| Charge                                                                   0
 DFT| Self-interaction correction (SIC)                                       NO
 DFT| Cutoffs: density                                              1.000000E-10
 DFT|          gradient                                             1.000000E-10
 DFT|          tau                                                  1.000000E-10
 DFT|          cutoff_smoothing_range                               0.000000E+00
 DFT| XC density smoothing                                                  NONE
 DFT| XC derivatives                                                          PW

 FUNCTIONAL| PADE:
 FUNCTIONAL| S. Goedecker, M. Teter and J. Hutter, Phys. Rev. B 54, 1703 (1996) 


 QS| Method:                                                                 GPW
 QS| Density plane wave grid type                        NON-SPHERICAL FULLSPACE
 QS| Number of grid levels:                                                    4
 QS| Density cutoff [a.u.]:                                                200.0
 QS| Multi grid cutoff [a.u.]: 1) grid level                               200.0
 QS|                           2) grid level                                66.7
 QS|                           3) grid level                                22.2
 QS|                           4) grid level                                 7.4
 QS| Grid level progression factor:                                          3.0
 QS| Relative density cutoff [a.u.]:                                        20.0
 QS| Interaction thresholds: eps_pgf_orb:                                1.0E-05
 QS|                         eps_filter_matrix:                          0.0E+00
 QS|                         eps_core_charge:                            1.0E-12
 QS|                         eps_rho_gspace:                             1.0E-10
 QS|                         eps_rho_rspace:                             1.0E-10
 QS|                         eps_gvg_rspace:                             1.0E-05
 QS|                         eps_ppl:                                    1.0E-02
 QS|                         eps_ppnl:                                   1.0E-07


 ATOMIC KIND INFORMATION

  1. Atomic kind: Au                                    Number of atoms:      96

     Orbital Basis Set                                         SZV-MOLOPT-SR-GTH

       Number of orbital shell sets:                                           1
       Number of orbital shells:                                               3
       Number of primitive Cartesian functions:                                5
       Number of Cartesian basis functions:                                   10
       Number of spherical basis functions:                                    9
       Norm type:                                                              2

       Normalised Cartesian orbitals:

                        Set   Shell   Orbital            Exponent    Coefficient

                          1       1    2s                2.950008       0.074626
                                                         1.563057      -0.007898
                                                         0.666664      -0.297688
                                                         0.251083       0.136809
                                                         0.081714       0.088198

                          1       2    3px               2.950008       0.148824
                                                         1.563057       0.025430
                                                         0.666664      -0.123003
                                                         0.251083       0.033648
                                                         0.081714       0.059008
                          1       2    3py               2.950008       0.148824
                                                         1.563057       0.025430
                                                         0.666664      -0.123003
                                                         0.251083       0.033648
                                                         0.081714       0.059008
                          1       2    3pz               2.950008       0.148824
                                                         1.563057       0.025430
                                                         0.666664      -0.123003
                                                         0.251083       0.033648
                                                         0.081714       0.059008

                          1       3    4dx2              2.950008      -0.139595
                                                         1.563057       1.319655
                                                         0.666664       0.377081
                                                         0.251083       0.046872
                                                         0.081714       0.001393
                          1       3    4dxy              2.950008      -0.241786
                                                         1.563057       2.285709
                                                         0.666664       0.653124
                                                         0.251083       0.081185
                                                         0.081714       0.002412
                          1       3    4dxz              2.950008      -0.241786
                                                         1.563057       2.285709
                                                         0.666664       0.653124
                                                         0.251083       0.081185
                                                         0.081714       0.002412
                          1       3    4dy2              2.950008      -0.139595
                                                         1.563057       1.319655
                                                         0.666664       0.377081
                                                         0.251083       0.046872
                                                         0.081714       0.001393
                          1       3    4dyz              2.950008      -0.241786
                                                         1.563057       2.285709
                                                         0.666664       0.653124
                                                         0.251083       0.081185
                                                         0.081714       0.002412
                          1       3    4dz2              2.950008      -0.139595
                                                         1.563057       1.319655
                                                         0.666664       0.377081
                                                         0.251083       0.046872
                                                         0.081714       0.001393

       Atomic covalent radius [Angstrom]:                                  1.340

       Atomic van der Waals radius [Angstrom]:                             1.660

     GTH Potential information for                                  GTH-PADE-q11

       Description:                       Goedecker-Teter-Hutter pseudopotential
                                           Goedecker et al., PRB 54, 1703 (1996)
                                          Hartwigsen et al., PRB 58, 3641 (1998)
                                                      Krack, TCA 114, 145 (2005)

       Gaussian exponent of the core charge distribution:               1.436369
       Electronic configuration (s p d ...):                           1   0  10

       Parameters of the local part of the GTH pseudopotential:

                          rloc        C1          C2          C3          C4
                        0.590000   11.604428

       Parameters of the non-local part of the GTH pseudopotential:

                   l      r(l)      h(i,j,l)

                   0    0.521180    2.538614   -1.046137
                                   -1.046137    2.701113
                   1    0.630613    0.394853   -0.869592
                                   -0.869592    2.057831
                   2    0.440706   -4.719070    0.727771
                                    0.727771   -1.650429


 MOLECULE KIND INFORMATION


 All atoms are their own molecule, skipping detailed information


 TOTAL NUMBERS AND MAXIMUM NUMBERS

  Total number of            - Atomic kinds:                                   1
                             - Atoms:                                         96
                             - Shell sets:                                    96
                             - Shells:                                       288
                             - Primitive Cartesian functions:                480
                             - Cartesian basis functions:                    960
                             - Spherical basis functions:                    864

  Maximum angular momentum of- Orbital basis functions:                        2
                             - Local part of the GTH pseudopotential:          0
                             - Non-local part of the GTH pseudopotential:      4


 MODULE QUICKSTEP: ATOMIC COORDINATES IN ANGSTROM

   Atom Kind Element         X             Y             Z       Z(eff)     Mass
      1    1 Au   79      0.000000      0.000000      0.000000  11.0000 196.9666
      2    1 Au   79      0.000000      4.168000      0.000000  11.0000 196.9666
      3    1 Au   79      2.084000      2.084000      0.000000  11.0000 196.9666
      4    1 Au   79      2.084000      6.252000      0.000000  11.0000 196.9666
      5    1 Au   79      4.168000      0.000000      0.000000  11.0000 196.9666
      6    1 Au   79      4.168000      4.168000      0.000000  11.0000 196.9666
      7    1 Au   79      6.252000      2.084000      0.000000  11.0000 196.9666
      8    1 Au   79      6.252000      6.252000      0.000000  11.0000 196.9666
      9    1 Au   79      0.000000      2.084000      2.084000  11.0000 196.9666
     10    1 Au   79      0.000000      6.252000      2.084000  11.0000 196.9666
     11    1 Au   79      2.084000      0.000000      2.084000  11.0000 196.9666
     12    1 Au   79      2.084000      4.168000      2.084000  11.0000 196.9666
     13    1 Au   79      4.168000      2.084000      2.084000  11.0000 196.9666
     14    1 Au   79      4.168000      6.252000      2.084000  11.0000 196.9666
     15    1 Au   79      6.252000      0.000000      2.084000  11.0000 196.9666
     16    1 Au   79      6.252000      4.168000      2.084000  11.0000 196.9666
     17    1 Au   79      0.000000      0.000000      4.168000  11.0000 196.9666
     18    1 Au   79      0.000000      4.168000      4.168000  11.0000 196.9666
     19    1 Au   79      2.084000      2.084000      4.168000  11.0000 196.9666
     20    1 Au   79      2.084000      6.252000      4.168000  11.0000 196.9666
     21    1 Au   79      4.168000      0.000000      4.168000  11.0000 196.9666
     22    1 Au   79      4.168000      4.168000      4.168000  11.0000 196.9666
     23    1 Au   79      6.252000      2.084000      4.168000  11.0000 196.9666
     24    1 Au   79      6.252000      6.252000      4.168000  11.0000 196.9666
     25    1 Au   79      0.000000      2.084000      6.252000  11.0000 196.9666
     26    1 Au   79      0.000000      6.252000      6.252000  11.0000 196.9666
     27    1 Au   79      2.084000      0.000000      6.252000  11.0000 196.9666
     28    1 Au   79      2.084000      4.168000      6.252000  11.0000 196.9666
     29    1 Au   79      4.168000      2.084000      6.252000  11.0000 196.9666
     30    1 Au   79      4.168000      6.252000      6.252000  11.0000 196.9666
     31    1 Au   79      6.252000      0.000000      6.252000  11.0000 196.9666
     32    1 Au   79      6.252000      4.168000      6.252000  11.0000 196.9666
     33    1 Au   79      0.000000      0.000000      8.336000  11.0000 196.9666
     34    1 Au   79      0.000000      4.168000      8.336000  11.0000 196.9666
     35    1 Au   79      2.084000      2.084000      8.336000  11.0000 196.9666
     36    1 Au   79      2.084000      6.252000      8.336000  11.0000 196.9666
     37    1 Au   79      4.168000      0.000000      8.336000  11.0000 196.9666
     38    1 Au   79      4.168000      4.168000      8.336000  11.0000 196.9666
     39    1 Au   79      6.252000      2.084000      8.336000  11.0000 196.9666
     40    1 Au   79      6.252000      6.252000      8.336000  11.0000 196.9666
     41    1 Au   79      0.000000      2.084000     10.420000  11.0000 196.9666
     42    1 Au   79      0.000000      6.252000     10.420000  11.0000 196.9666
     43    1 Au   79      2.084000      0.000000     10.420000  11.0000 196.9666
     44    1 Au   79      2.084000      4.168000     10.420000  11.0000 196.9666
     45    1 Au   79      4.168000      2.084000     10.420000  11.0000 196.9666
     46    1 Au   79      4.168000      6.252000     10.420000  11.0000 196.9666
     47    1 Au   79      6.252000      0.000000     10.420000  11.0000 196.9666
     48    1 Au   79      6.252000      4.168000     10.420000  11.0000 196.9666
     49    1 Au   79      0.000000      0.000000     21.422000  11.0000 196.9666
     50    1 Au   79      0.000000      4.168000     21.422000  11.0000 196.9666
     51    1 Au   79      2.084000      2.084000     21.422000  11.0000 196.9666
     52    1 Au   79      2.084000      6.252000     21.422000  11.0000 196.9666
     53    1 Au   79      4.168000      0.000000     21.422000  11.0000 196.9666
     54    1 Au   79      4.168000      4.168000     21.422000  11.0000 196.9666
     55    1 Au   79      6.252000      2.084000     21.422000  11.0000 196.9666
     56    1 Au   79      6.252000      6.252000     21.422000  11.0000 196.9666
     57    1 Au   79      0.000000      2.084000     23.506000  11.0000 196.9666
     58    1 Au   79      0.000000      6.252000     23.506000  11.0000 196.9666
     59    1 Au   79      2.084000      0.000000     23.506000  11.0000 196.9666
     60    1 Au   79      2.084000      4.168000     23.506000  11.0000 196.9666
     61    1 Au   79      4.168000      2.084000     23.506000  11.0000 196.9666
     62    1 Au   79      4.168000      6.252000     23.506000  11.0000 196.9666
     63    1 Au   79      6.252000      0.000000     23.506000  11.0000 196.9666
     64    1 Au   79      6.252000      4.168000     23.506000  11.0000 196.9666
     65    1 Au   79      0.000000      0.000000     25.590000  11.0000 196.9666
     66    1 Au   79      0.000000      4.168000     25.590000  11.0000 196.9666
     67    1 Au   79      2.084000      2.084000     25.590000  11.0000 196.9666
     68    1 Au   79      2.084000      6.252000     25.590000  11.0000 196.9666
     69    1 Au   79      4.168000      0.000000     25.590000  11.0000 196.9666
     70    1 Au   79      4.168000      4.168000     25.590000  11.0000 196.9666
     71    1 Au   79      6.252000      2.084000     25.590000  11.0000 196.9666
     72    1 Au   79      6.252000      6.252000     25.590000  11.0000 196.9666
     73    1 Au   79      0.000000      2.084000     27.674000  11.0000 196.9666
     74    1 Au   79      0.000000      6.252000     27.674000  11.0000 196.9666
     75    1 Au   79      2.084000      0.000000     27.674000  11.0000 196.9666
     76    1 Au   79      2.084000      4.168000     27.674000  11.0000 196.9666
     77    1 Au   79      4.168000      2.084000     27.674000  11.0000 196.9666
     78    1 Au   79      4.168000      6.252000     27.674000  11.0000 196.9666
     79    1 Au   79      6.252000      0.000000     27.674000  11.0000 196.9666
     80    1 Au   79      6.252000      4.168000     27.674000  11.0000 196.9666
     81    1 Au   79      0.000000      0.000000     29.758000  11.0000 196.9666
     82    1 Au   79      0.000000      4.168000     29.758000  11.0000 196.9666
     83    1 Au   79      2.084000      2.084000     29.758000  11.0000 196.9666
     84    1 Au   79      2.084000      6.252000     29.758000  11.0000 196.9666
     85    1 Au   79      4.168000      0.000000     29.758000  11.0000 196.9666
     86    1 Au   79      4.168000      4.168000     29.758000  11.0000 196.9666
     87    1 Au   79      6.252000      2.084000     29.758000  11.0000 196.9666
     88    1 Au   79      6.252000      6.252000     29.758000  11.0000 196.9666
     89    1 Au   79      0.000000      2.084000     31.842000  11.0000 196.9666
     90    1 Au   79      0.000000      6.252000     31.842000  11.0000 196.9666
     91    1 Au   79      2.084000      0.000000     31.842000  11.0000 196.9666
     92    1 Au   79      2.084000      4.168000     31.842000  11.0000 196.9666
     93    1 Au   79      4.168000      2.084000     31.842000  11.0000 196.9666
     94    1 Au   79      4.168000      6.252000     31.842000  11.0000 196.9666
     95    1 Au   79      6.252000      0.000000     31.842000  11.0000 196.9666
     96    1 Au   79      6.252000      4.168000     31.842000  11.0000 196.9666



 SCF PARAMETERS         Density guess:                                   RESTART
                        --------------------------------------------------------
                        max_scf:                                             500
                        max_scf_history:                                       0
                        max_diis:                                              4
                        --------------------------------------------------------
                        eps_scf:                                        1.00E-07
                        eps_scf_history:                                0.00E+00
                        eps_diis:                                       1.00E-01
                        eps_eigval:                                     1.00E-05
                        --------------------------------------------------------
                        level_shift [a.u.]:                             0.000000
                        added MOs                                       100    0
                        --------------------------------------------------------
                        Mixing method:                            BROYDEN_MIXING
                                                charge density mixing in g-space
                        --------------------------------------------------------
                        Smear method:                                FERMI_DIRAC
                        Electronic temperature [K]:                        293.0
                        Electronic temperature [a.u.]:                  9.28E-04
                        Accuracy threshold:                             1.00E-10
                        --------------------------------------------------------
                        No outer SCF

 PW_GRID| Information for grid number                                          1
 PW_GRID| Grid distributed over                                   240 processors
 PW_GRID| Real space group dimensions                                    12   20
 PW_GRID| the grid is blocked:                                               YES
 PW_GRID| Cutoff [a.u.]                                                    200.0
 PW_GRID| spherical cutoff:                                                   NO
 PW_GRID|   Bounds   1            -52      52                Points:         105
 PW_GRID|   Bounds   2            -52      52                Points:         105
 PW_GRID|   Bounds   3           -210     209                Points:         420
 PW_GRID| Volume element (a.u.^3)  0.3436E-02     Volume (a.u.^3)     15909.0657
 PW_GRID| Grid span                                                    FULLSPACE
 PW_GRID|   Distribution                         Average         Max         Min
 PW_GRID|   G-Vectors                            19293.8       19845       17640
 PW_GRID|   G-Rays                                 183.8         189         168
 PW_GRID|   Real Space Points                    19293.8       19845       17640

 PW_GRID| Information for grid number                                          2
 PW_GRID| Number of the reference grid                                         1
 PW_GRID| Grid distributed over                                   240 processors
 PW_GRID| Real space group dimensions                                    12   20
 PW_GRID| the grid is blocked:                                                NO
 PW_GRID| Cutoff [a.u.]                                                     66.7
 PW_GRID| spherical cutoff:                                                   NO
 PW_GRID|   Bounds   1            -30      29                Points:          60
 PW_GRID|   Bounds   2            -30      29                Points:          60
 PW_GRID|   Bounds   3           -120     119                Points:         240
 PW_GRID| Volume element (a.u.^3)  0.1841E-01     Volume (a.u.^3)     15909.0657
 PW_GRID| Grid span                                                    FULLSPACE
 PW_GRID|   Distribution                         Average         Max         Min
 PW_GRID|   G-Vectors                             3600.0       11340           0
 PW_GRID|   G-Rays                                  60.0         189           0
 PW_GRID|   Real Space Points                     3600.0        3600        3600

 PW_GRID| Information for grid number                                          3
 PW_GRID| Number of the reference grid                                         1
 PW_GRID| Grid distributed over                                   240 processors
 PW_GRID| Real space group dimensions                                    12   20
 PW_GRID| the grid is blocked:                                                NO
 PW_GRID| Cutoff [a.u.]                                                     22.2
 PW_GRID| spherical cutoff:                                                   NO
 PW_GRID|   Bounds   1            -16      16                Points:          33
 PW_GRID|   Bounds   2            -16      16                Points:          33
 PW_GRID|   Bounds   3            -70      69                Points:         140
 PW_GRID| Volume element (a.u.^3)  0.1043         Volume (a.u.^3)     15909.0657
 PW_GRID| Grid span                                                    FULLSPACE
 PW_GRID|   Distribution                         Average         Max         Min
 PW_GRID|   G-Vectors                              635.2        6237           0
 PW_GRID|   G-Rays                                  19.2         189           0
 PW_GRID|   Real Space Points                      635.2         840         280

 PW_GRID| Information for grid number                                          4
 PW_GRID| Number of the reference grid                                         1
 PW_GRID| Grid distributed over                                   240 processors
 PW_GRID| Real space group dimensions                                    12   20
 PW_GRID| the grid is blocked:                                                NO
 PW_GRID| Cutoff [a.u.]                                                      7.4
 PW_GRID| spherical cutoff:                                                   NO
 PW_GRID|   Bounds   1            -10       9                Points:          20
 PW_GRID|   Bounds   2            -10       9                Points:          20
 PW_GRID|   Bounds   3            -40      39                Points:          80
 PW_GRID| Volume element (a.u.^3)  0.4972         Volume (a.u.^3)     15909.0657
 PW_GRID| Grid span                                                    FULLSPACE
 PW_GRID|   Distribution                         Average         Max         Min
 PW_GRID|   G-Vectors                              133.3        3780           0
 PW_GRID|   G-Rays                                   6.7         189           0
 PW_GRID|   Real Space Points                      133.3         160          80

 POISSON| Solver                                                        PERIODIC
 POISSON| Periodicity                                                        XYZ

 RS_GRID| Information for grid number                                          1
 RS_GRID|   Bounds   1            -52      52                Points:         105
 RS_GRID|   Bounds   2            -52      52                Points:         105
 RS_GRID|   Bounds   3           -210     209                Points:         420
 RS_GRID| Real space distribution over                                  8 groups
 RS_GRID| Real space distribution along direction                              2
 RS_GRID| Border size                                                         30
 RS_GRID| Real space distribution over                                 30 groups
 RS_GRID| Real space distribution along direction                              3
 RS_GRID| Border size                                                         30
 RS_GRID|   Distribution                         Average         Max         Min
 RS_GRID|   Planes                                  73.1          74          73
 RS_GRID|   Distribution                         Average         Max         Min
 RS_GRID|   Planes                                  74.0          74          74

 RS_GRID| Information for grid number                                          2
 RS_GRID|   Bounds   1            -30      29                Points:          60
 RS_GRID|   Bounds   2            -30      29                Points:          60
 RS_GRID|   Bounds   3           -120     119                Points:         240
 RS_GRID| Real space distribution over                                  8 groups
 RS_GRID| Real space distribution along direction                              2
 RS_GRID| Border size                                                         20
 RS_GRID| Real space distribution over                                 30 groups
 RS_GRID| Real space distribution along direction                              3
 RS_GRID| Border size                                                         20
 RS_GRID|   Distribution                         Average         Max         Min
 RS_GRID|   Planes                                  47.5          48          47
 RS_GRID|   Distribution                         Average         Max         Min
 RS_GRID|   Planes                                  48.0          48          48

 RS_GRID| Information for grid number                                          3
 RS_GRID|   Bounds   1            -16      16                Points:          33
 RS_GRID|   Bounds   2            -16      16                Points:          33
 RS_GRID|   Bounds   3            -70      69                Points:         140
 RS_GRID| Real space fully replicated
 RS_GRID| Group size                                                           1

 RS_GRID| Information for grid number                                          4
 RS_GRID|   Bounds   1            -10       9                Points:          20
 RS_GRID|   Bounds   2            -10       9                Points:          20
 RS_GRID|   Bounds   3            -40      39                Points:          80
 RS_GRID| Real space fully replicated
 RS_GRID| Group size                                                           1

 KPOINTS| Number of kpoint groups                                              1
 KPOINTS| Size of each kpoint group                                          240
 KPOINTS| Number of kpoints per group                                          4

 Number of electrons:                                                       1056
 Number of occupied orbitals:                                                528
 Number of molecular orbitals:                                               628

 Number of orbital functions:                                                864
 Number of independent orbital functions:                                    864

 Extrapolation method: initial_guess


 SCF WAVEFUNCTION OPTIMIZATION

  Step     Update method      Time    Convergence         Total energy    Change
  ------------------------------------------------------------------------------
 SMEAGOL DEBUG| Number of electrons in the unit cell =      1055.9999999939
     1 NoMix/SMGL  0.30E+00   29.2     1.36671826     -3195.0403578549 -3.20E+03
 SMEAGOL DEBUG| Number of electrons in the unit cell =      1055.0461287126
     2 Broy./SMGL  0.30E+00   13.0     0.08297342     -3199.4120422298 -4.37E+00
 SMEAGOL DEBUG| Number of electrons in the unit cell =      1055.6067844089
     3 Broy./SMGL  0.30E+00   13.3     0.03294415     -3191.6312137813  7.78E+00
 SMEAGOL DEBUG| Number of electrons in the unit cell =      1056.0086613167
     4 Broy./SMGL  0.30E+00   13.2     0.00699763     -3194.6492169247 -3.02E+00
 SMEAGOL DEBUG| Number of electrons in the unit cell =      1056.2401959455
     5 Broy./SMGL  0.30E+00   13.0     0.01142509     -3194.3556338228  2.94E-01
 SMEAGOL DEBUG| Number of electrons in the unit cell =      1056.2528682427
     6 Broy./SMGL  0.30E+00   13.2     0.00236097     -3195.2424224743 -8.87E-01
 SMEAGOL DEBUG| Number of electrons in the unit cell =      1056.2528544196
     7 Broy./SMGL  0.30E+00   13.2     0.00373594     -3194.9151996895  3.27E-01
 SMEAGOL DEBUG| Number of electrons in the unit cell =      1056.2445247879
     8 Broy./SMGL  0.30E+00   13.0     0.00151760     -3195.0603000002 -1.45E-01
 SMEAGOL DEBUG| Number of electrons in the unit cell =      1056.2346732960
     9 Broy./SMGL  0.30E+00   13.3     0.00412853     -3195.0223862810  3.79E-02
 SMEAGOL DEBUG| Number of electrons in the unit cell =      1056.2256067471
    10 Broy./SMGL  0.30E+00   13.5     0.00179922     -3195.1103190005 -8.79E-02
 SMEAGOL DEBUG| Number of electrons in the unit cell =      1056.2027229753
    11 Broy./SMGL  0.30E+00   12.9     0.00310129     -3195.1134348557 -3.12E-03
 SMEAGOL DEBUG| Number of electrons in the unit cell =      1056.2149463845
    12 Broy./SMGL  0.30E+00   13.3     0.00117107     -3195.0059505299  1.07E-01
 SMEAGOL DEBUG| Number of electrons in the unit cell =      1056.1750935161
    13 Broy./SMGL  0.30E+00   14.2     0.00756109     -3195.1626181052 -1.57E-01
 SMEAGOL DEBUG| Number of electrons in the unit cell =      1056.2079875642
    14 Broy./SMGL  0.30E+00   12.9     0.00912486     -3194.7788662173  3.84E-01
 SMEAGOL DEBUG| Number of electrons in the unit cell =      1056.2501454984
    15 Broy./SMGL  0.30E+00   13.1     0.00846960     -3194.8979386361 -1.19E-01
 SMEAGOL DEBUG| Number of electrons in the unit cell =      1056.2547338869
    16 Broy./SMGL  0.30E+00   13.7     0.00197324     -3194.9927603346 -9.48E-02
 SMEAGOL DEBUG| Number of electrons in the unit cell =      1056.2513923851
    17 Broy./SMGL  0.30E+00   13.0     0.00058499     -3195.0060704873 -1.33E-02
 SMEAGOL DEBUG| Number of electrons in the unit cell =      1056.2510661420
    18 Broy./SMGL  0.30E+00   13.1     0.00166447     -3194.9813859780  2.47E-02
 SMEAGOL DEBUG| Number of electrons in the unit cell =      1056.2372105623
    19 Broy./SMGL  0.30E+00   13.6     0.00343191     -3195.0182408701 -3.69E-02
 SMEAGOL DEBUG| Number of electrons in the unit cell =      1056.2328801156
    20 Broy./SMGL  0.30E+00   13.0     0.00075691     -3195.0312228783 -1.30E-02
 SMEAGOL DEBUG| Number of electrons in the unit cell =      1056.2213240451
    21 Broy./SMGL  0.30E+00   12.9     0.00187679     -3195.0525884174 -2.14E-02
 SMEAGOL DEBUG| Number of electrons in the unit cell =      1056.2042487161
    22 Broy./SMGL  0.30E+00   13.6     0.00375380     -3195.0802948514 -2.77E-02
 SMEAGOL DEBUG| Number of electrons in the unit cell =      1056.1667055342
    23 Broy./SMGL  0.30E+00   13.3     0.00836702     -3195.1440001480 -6.37E-02
 SMEAGOL DEBUG| Number of electrons in the unit cell =      1056.1745921207
    24 Broy./SMGL  0.30E+00   13.1     0.00165698     -3194.8855994955  2.58E-01
 SMEAGOL DEBUG| Number of electrons in the unit cell =      1056.2055061827
    25 Broy./SMGL  0.30E+00   13.3     0.00659641     -3194.8356570311  4.99E-02
 SMEAGOL DEBUG| Number of electrons in the unit cell =      1056.2186497389
    26 Broy./SMGL  0.30E+00   13.3     0.00216621     -3194.9762587874 -1.41E-01
 SMEAGOL DEBUG| Number of electrons in the unit cell =      1056.2247381458
    27 Broy./SMGL  0.30E+00   13.1     0.00108656     -3194.9949847816 -1.87E-02
 SMEAGOL DEBUG| Number of electrons in the unit cell =      1056.2304770264
    28 Broy./SMGL  0.30E+00   13.2     0.00136304     -3194.9881437511  6.84E-03
 SMEAGOL DEBUG| Number of electrons in the unit cell =      1056.2301557295
    29 Broy./SMGL  0.30E+00   13.3     0.00030139     -3194.9954478159 -7.30E-03
 SMEAGOL DEBUG| Number of electrons in the unit cell =      1056.2224837269
    30 Broy./SMGL  0.30E+00   13.1     0.00176689     -3195.0232078852 -2.78E-02
 SMEAGOL DEBUG| Number of electrons in the unit cell =      1056.2228376646
    31 Broy./SMGL  0.30E+00   13.3     0.00320526     -3195.0053448222  1.79E-02
 SMEAGOL DEBUG| Number of electrons in the unit cell =      1056.2209790417
    32 Broy./SMGL  0.30E+00   18.1     0.00321225     -3195.0173108662 -1.20E-02
 SMEAGOL DEBUG| Number of electrons in the unit cell =      1056.1888028733
    33 Broy./SMGL  0.30E+00   13.0     0.00614787     -3195.1037924460 -8.65E-02
 SMEAGOL DEBUG| Number of electrons in the unit cell =      1056.1963272039
    34 Broy./SMGL  0.30E+00   19.2     0.00156916     -3194.9569485668  1.47E-01
 SMEAGOL DEBUG| Number of electrons in the unit cell =      1056.2012642727
    35 Broy./SMGL  0.30E+00   13.6     0.00082891     -3194.9844190024 -2.75E-02
 SMEAGOL DEBUG| Number of electrons in the unit cell =      1056.2120025567
    36 Broy./SMGL  0.30E+00   13.0     0.00167258     -3194.9807618142  3.66E-03
 SMEAGOL DEBUG| Number of electrons in the unit cell =      1056.1947966514
    37 Broy./SMGL  0.30E+00   13.5     0.00331708     -3195.0589517952 -7.82E-02
 SMEAGOL DEBUG| Number of electrons in the unit cell =      1056.2102740280
    38 Broy./SMGL  0.30E+00   13.3     0.00328590     -3194.9433358312  1.16E-01
 SMEAGOL DEBUG| Number of electrons in the unit cell =      1056.1556277948
    39 Broy./SMGL  0.30E+00   13.0     0.01027768     -3195.1545914201 -2.11E-01
 SMEAGOL DEBUG| Number of electrons in the unit cell =      1056.1533240375
    40 Broy./SMGL  0.30E+00   12.9     0.00049788     -3194.8633161278  2.91E-01
 SMEAGOL DEBUG| Number of electrons in the unit cell =      1056.0919749422
    41 Broy./SMGL  0.30E+00   13.5     0.01256127     -3195.0397342213 -1.76E-01
 SMEAGOL DEBUG| Number of electrons in the unit cell =      1056.2038885023
    42 Broy./SMGL  0.30E+00   13.3     0.02234725     -3194.2206608878  8.19E-01
 SMEAGOL DEBUG| Number of electrons in the unit cell =      1056.2501474549
    43 Broy./SMGL  0.30E+00   13.0     0.00829162     -3194.8562436963 -6.36E-01
 SMEAGOL DEBUG| Number of electrons in the unit cell =      1056.2625142115
    44 Broy./SMGL  0.30E+00   13.5     0.00300120     -3194.9159440052 -5.97E-02
 SMEAGOL DEBUG| Number of electrons in the unit cell =      1056.2637132519
    45 Broy./SMGL  0.30E+00   13.1     0.00028297     -3194.9035208397  1.24E-02
 SMEAGOL DEBUG| Number of electrons in the unit cell =      1056.2625466359
    46 Broy./SMGL  0.30E+00   13.2     0.00036061     -3194.9054702316 -1.95E-03
 SMEAGOL DEBUG| Number of electrons in the unit cell =      1056.2718489157
    47 Broy./SMGL  0.30E+00   13.6     0.00272326     -3194.8835216599  2.19E-02
 SMEAGOL DEBUG| Number of electrons in the unit cell =      1056.2586768637
    48 Broy./SMGL  0.30E+00   13.1     0.00331506     -3194.9003799589 -1.69E-02
 SMEAGOL DEBUG| Number of electrons in the unit cell =      1056.2641119467
    49 Broy./SMGL  0.30E+00   12.9     0.00168388     -3194.8962721635  4.11E-03
 SMEAGOL DEBUG| Number of electrons in the unit cell =      1056.2547989996
    50 Broy./SMGL  0.30E+00   13.6     0.00254332     -3194.9159804383 -1.97E-02
 SMEAGOL DEBUG| Number of electrons in the unit cell =      1056.2006164716
    51 Broy./SMGL  0.30E+00   13.9     0.00961802     -3195.0922762711 -1.76E-01
 SMEAGOL DEBUG| Number of electrons in the unit cell =      1056.1818243299
    52 Broy./SMGL  0.30E+00   13.1     0.00357272     -3195.0607756211  3.15E-02
 SMEAGOL DEBUG| Number of electrons in the unit cell =      1056.2221677219
    53 Broy./SMGL  0.30E+00   13.3     0.00774533     -3194.8543105357  2.06E-01
 SMEAGOL DEBUG| Number of electrons in the unit cell =      1056.2464148322
    54 Broy./SMGL  0.30E+00   14.2     0.00478174     -3194.9322180803 -7.79E-02
 SMEAGOL DEBUG| Number of electrons in the unit cell =      1056.2174153204
    55 Broy./SMGL  0.30E+00   13.0     0.00552305     -3195.0497678989 -1.18E-01
 SMEAGOL DEBUG| Number of electrons in the unit cell =      1056.1878342305
    56 Broy./SMGL  0.30E+00   13.4     0.00569654     -3195.0960429044 -4.63E-02
 SMEAGOL DEBUG| Number of electrons in the unit cell =      1056.1656896014
    57 Broy./SMGL  0.30E+00   13.4     0.00449986     -3195.0472477824  4.88E-02
 SMEAGOL DEBUG| Number of electrons in the unit cell =      1056.1593314389
    58 Broy./SMGL  0.30E+00   12.8     0.00117683     -3194.9382510545  1.09E-01
 SMEAGOL DEBUG| Number of electrons in the unit cell =      1056.1508141846
    59 Broy./SMGL  0.30E+00   13.5     0.00179874     -3194.9241681249  1.41E-02
 SMEAGOL DEBUG| Number of electrons in the unit cell =      1056.1317995974
    60 Broy./SMGL  0.30E+00   12.9     0.00407055     -3194.9207155998  3.45E-03
 SMEAGOL DEBUG| Number of electrons in the unit cell =      1056.1285741084
    61 Broy./SMGL  0.30E+00   13.7     0.00074395     -3194.7869636597  1.34E-01
 SMEAGOL DEBUG| Number of electrons in the unit cell =      1056.1287248190
    62 Broy./SMGL  0.30E+00   13.2     0.00003220     -3194.7633517476  2.36E-02
 SMEAGOL DEBUG| Number of electrons in the unit cell =      1056.1282804428
    63 Broy./SMGL  0.30E+00   12.9     0.00018361     -3194.7634016798 -4.99E-05
 SMEAGOL DEBUG| Number of electrons in the unit cell =      1056.1573698399
    64 Broy./SMGL  0.30E+00   13.5     0.00597440     -3194.6732864983  9.01E-02
 SMEAGOL DEBUG| Number of electrons in the unit cell =      1056.2223462093
    65 Broy./SMGL  0.30E+00   12.7     0.01229898     -3194.6925964291 -1.93E-02
 SMEAGOL DEBUG| Number of electrons in the unit cell =      1056.1963727532
    66 Broy./SMGL  0.30E+00   13.1     0.00495822     -3195.0682424749 -3.76E-01
 SMEAGOL DEBUG| Number of electrons in the unit cell =      1056.2083741825
    67 Broy./SMGL  0.30E+00   13.0     0.00243237     -3194.9460069712  1.22E-01
 SMEAGOL DEBUG| Number of electrons in the unit cell =      1056.2161033358
    68 Broy./SMGL  0.30E+00   12.7     0.00139293     -3194.9727183177 -2.67E-02
 SMEAGOL DEBUG| Number of electrons in the unit cell =      1056.2180620996
    69 Broy./SMGL  0.30E+00   13.3     0.00040530     -3194.9894429865 -1.67E-02
 SMEAGOL DEBUG| Number of electrons in the unit cell =      1056.2183162932
    70 Broy./SMGL  0.30E+00   13.4     0.00006921     -3194.9955442265 -6.10E-03
 SMEAGOL DEBUG| Number of electrons in the unit cell =      1056.2065125709
    71 Broy./SMGL  0.30E+00   12.7     0.00225981     -3195.0336799071 -3.81E-02
 SMEAGOL DEBUG| Number of electrons in the unit cell =      1056.1877538438
    72 Broy./SMGL  0.30E+00   13.7     0.00382468     -3195.0526399998 -1.90E-02
 SMEAGOL DEBUG| Number of electrons in the unit cell =      1056.1847438761
    73 Broy./SMGL  0.30E+00   13.3     0.00062140     -3194.9810874686  7.16E-02
 SMEAGOL DEBUG| Number of electrons in the unit cell =      1056.1719196582
    74 Broy./SMGL  0.30E+00   12.8     0.00278733     -3195.0070809058 -2.60E-02
 SMEAGOL DEBUG| Number of electrons in the unit cell =      1056.2221221632
    75 Broy./SMGL  0.30E+00   13.5     0.01008530     -3194.7811755750  2.26E-01
 SMEAGOL DEBUG| Number of electrons in the unit cell =      1056.1209820858
    76 Broy./SMGL  0.30E+00   13.4     0.02062959     -3195.2981787787 -5.17E-01
 SMEAGOL DEBUG| Number of electrons in the unit cell =      1056.1622043357
    77 Broy./SMGL  0.30E+00   12.8     0.00879857     -3194.6016010803  6.97E-01
 SMEAGOL DEBUG| Number of electrons in the unit cell =      1056.2676663443
    78 Broy./SMGL  0.30E+00   13.4     0.02042917     -3194.5889338977  1.27E-02
 SMEAGOL DEBUG| Number of electrons in the unit cell =      1056.1603872201
    79 Broy./SMGL  0.30E+00   12.9     0.02103738     -3195.1966901586 -6.08E-01
 SMEAGOL DEBUG| Number of electrons in the unit cell =      1056.2652883248
    80 Broy./SMGL  0.30E+00   13.4     0.02097121     -3194.5669296469  6.30E-01
 SMEAGOL DEBUG| Number of electrons in the unit cell =      1056.1435667777
    81 Broy./SMGL  0.30E+00   13.4     0.02393389     -3195.2455010462 -6.79E-01
 SMEAGOL DEBUG| Number of electrons in the unit cell =      1056.2247506223
    82 Broy./SMGL  0.30E+00   13.2     0.01667376     -3194.5663085685  6.79E-01
 SMEAGOL DEBUG| Number of electrons in the unit cell =      1056.1749441775
    83 Broy./SMGL  0.30E+00   13.4     0.00989639     -3195.1394423232 -5.73E-01
 SMEAGOL DEBUG| Number of electrons in the unit cell =      1056.2520575826
    84 Broy./SMGL  0.30E+00   13.3     0.01497864     -3194.6975291632  4.42E-01
 SMEAGOL DEBUG| Number of electrons in the unit cell =      1056.2078087932
    85 Broy./SMGL  0.30E+00   12.9     0.00858450     -3195.0784236770 -3.81E-01
 SMEAGOL DEBUG| Number of electrons in the unit cell =      1056.2205727689
    86 Broy./SMGL  0.30E+00   13.5     0.00263617     -3194.9537837556  1.25E-01
 SMEAGOL DEBUG| Number of electrons in the unit cell =      1056.2153380070
    87 Broy./SMGL  0.30E+00   13.5     0.00102611     -3195.0129956814 -5.92E-02
 SMEAGOL DEBUG| Number of electrons in the unit cell =      1056.2184320656
    88 Broy./SMGL  0.30E+00   12.8     0.00100376     -3194.9861292674  2.69E-02
 SMEAGOL DEBUG| Number of electrons in the unit cell =      1056.2203274047
    89 Broy./SMGL  0.30E+00   13.6     0.00054755     -3194.9907057558 -4.58E-03
 SMEAGOL DEBUG| Number of electrons in the unit cell =      1056.2261700938
    90 Broy./SMGL  0.30E+00   12.8     0.01102480     -3194.9768737040  1.38E-02
 SMEAGOL DEBUG| Number of electrons in the unit cell =      1056.2151883489
    91 Broy./SMGL  0.30E+00   13.5     0.01102680     -3195.0204878764 -4.36E-02
 SMEAGOL DEBUG| Number of electrons in the unit cell =      1056.1503334506
    92 Broy./SMGL  0.30E+00   14.0     0.01494984     -3195.1901207817 -1.70E-01
 SMEAGOL DEBUG| Number of electrons in the unit cell =      1056.1778074749
    93 Broy./SMGL  0.30E+00   12.9     0.00874678     -3194.7451441315  4.45E-01
 SMEAGOL DEBUG| Number of electrons in the unit cell =      1056.1707492158
    94 Broy./SMGL  0.30E+00   13.6     0.00436122     -3194.9553970811 -2.10E-01
 SMEAGOL DEBUG| Number of electrons in the unit cell =      1056.2098955438
    95 Broy./SMGL  0.30E+00   13.9     0.00955451     -3194.8066474675  1.49E-01
 SMEAGOL DEBUG| Number of electrons in the unit cell =      1056.2775658998
    96 Broy./SMGL  0.30E+00   13.0     0.02210490     -3194.8029773109  3.67E-03
 SMEAGOL DEBUG| Number of electrons in the unit cell =      1056.3267317449
    97 Broy./SMGL  0.30E+00   13.3     0.03811278     -3194.6757826668  1.27E-01
 SMEAGOL DEBUG| Number of electrons in the unit cell =      1056.3288304368
    98 Broy./SMGL  0.30E+00   12.9     0.04267988     -3194.3134002073  3.62E-01
 SMEAGOL DEBUG| Number of electrons in the unit cell =      1056.2768835868
    99 Broy./SMGL  0.30E+00   13.6     0.05943253     -3194.0558329329  2.58E-01
 SMEAGOL DEBUG| Number of electrons in the unit cell =      1056.2366339134
   100 Broy./SMGL  0.30E+00   13.8     0.02723724     -3194.7384126942 -6.83E-01
 SMEAGOL DEBUG| Number of electrons in the unit cell =      1056.2682086202
   101 Broy./SMGL  0.30E+00   13.0     0.03471435     -3193.9303812673  8.08E-01
 SMEAGOL DEBUG| Number of electrons in the unit cell =      1056.2945494010
   102 Broy./SMGL  0.30E+00   14.1     0.06446571     -3193.6649520230  2.65E-01
 SMEAGOL DEBUG| Number of electrons in the unit cell =      1056.1412352630
   103 Broy./SMGL  0.30E+00   13.6     0.17162177     -3193.4371829461  2.28E-01
 SMEAGOL DEBUG| Number of electrons in the unit cell =      1056.1347255159
   104 Broy./SMGL  0.30E+00   13.0     0.00791357     -3194.7684966466 -1.33E+00
 SMEAGOL DEBUG| Number of electrons in the unit cell =      1056.1372753577
   105 Broy./SMGL  0.30E+00   13.4     0.00355445     -3194.7637306015  4.77E-03
 SMEAGOL DEBUG| Number of electrons in the unit cell =      1056.1520037961
   106 Broy./SMGL  0.30E+00   13.7     0.01150390     -3194.7394281747  2.43E-02
 SMEAGOL DEBUG| Number of electrons in the unit cell =      1056.1530090426
   107 Broy./SMGL  0.30E+00   12.9     0.01015250     -3194.7936730834 -5.42E-02
 SMEAGOL DEBUG| Number of electrons in the unit cell =      1056.1545831191
   108 Broy./SMGL  0.30E+00   13.3     0.01017401     -3194.7892399175  4.43E-03
 SMEAGOL DEBUG| Number of electrons in the unit cell =      1056.1191552357
   109 Broy./SMGL  0.30E+00   13.5     0.00997035     -3194.9148376558 -1.26E-01
 SMEAGOL DEBUG| Number of electrons in the unit cell =      1056.1180091385
   110 Broy./SMGL  0.30E+00   12.9     0.00177082     -3194.7132518042  2.02E-01
 SMEAGOL DEBUG| Number of electrons in the unit cell =      1056.2080585939
   111 Broy./SMGL  0.30E+00   13.5     0.02469415     -3194.4210346464  2.92E-01
 SMEAGOL DEBUG| Number of electrons in the unit cell =      1056.2355473774
   112 Broy./SMGL  0.30E+00   13.6     0.01311631     -3194.6197870851 -1.99E-01
 SMEAGOL DEBUG| Number of electrons in the unit cell =      1056.2410553775
   113 Broy./SMGL  0.30E+00   12.8     0.02047839     -3194.5791519345  4.06E-02
 SMEAGOL DEBUG| Number of electrons in the unit cell =      1056.2418438450
   114 Broy./SMGL  0.30E+00   13.8     0.00043495     -3194.3558147506  2.23E-01
 SMEAGOL DEBUG| Number of electrons in the unit cell =      1056.2644848076
   115 Broy./SMGL  0.30E+00   12.9     0.07236409     -3194.2917198892  6.41E-02
 SMEAGOL DEBUG| Number of electrons in the unit cell =      1056.2641823954
   116 Broy./SMGL  0.30E+00   13.7     0.03493902     -3193.5187549871  7.73E-01
 SMEAGOL DEBUG| Number of electrons in the unit cell =      1056.2642557043
   117 Broy./SMGL  0.30E+00   12.9     0.00414153     -3193.0594823201  4.59E-01
 SMEAGOL DEBUG| Number of electrons in the unit cell =      1056.2687696420
   118 Broy./SMGL  0.30E+00   14.2     0.01809147     -3193.1088778745 -4.94E-02
 SMEAGOL DEBUG| Number of electrons in the unit cell =      1056.2465742408
   119 Broy./SMGL  0.30E+00   13.7     0.10796339     -3193.4838544550 -3.75E-01
 SMEAGOL DEBUG| Number of electrons in the unit cell =      1056.2602359957
   120 Broy./SMGL  0.30E+00   12.9     0.00710761     -3194.7410135830 -1.26E+00
 SMEAGOL DEBUG| Number of electrons in the unit cell =      1056.2277638326
   121 Broy./SMGL  0.30E+00   13.4     0.01032644     -3194.9449654194 -2.04E-01
 SMEAGOL DEBUG| Number of electrons in the unit cell =      1056.1783891867
   122 Broy./SMGL  0.30E+00   13.6     0.01653858     -3194.9560871582 -1.11E-02
 SMEAGOL DEBUG| Number of electrons in the unit cell =      1056.3281919008
   123 Broy./SMGL  0.30E+00   13.0     0.05443192     -3194.2138662016  7.42E-01
 SMEAGOL DEBUG| Number of electrons in the unit cell =      1056.4256902457
   124 Broy./SMGL  0.30E+00   13.6     0.51568216     -3194.0667388472  1.47E-01
 SMEAGOL DEBUG| Number of electrons in the unit cell =      1057.1404151637
   125 Broy./SMGL  0.30E+00   13.5    16.60680002     -3186.1330943029  7.93E+00
 SMEAGOL DEBUG| Number of electrons in the unit cell =      1069.0792815910
   126 Broy./SMGL  0.30E+00   13.1    15.26055929     -2979.7146666304  2.06E+02
 SMEAGOL DEBUG| Number of electrons in the unit cell =      1070.3682865493
   127 Broy./SMGL  0.30E+00   14.3     6.82377695     -3269.2251220471 -2.90E+02
 SMEAGOL DEBUG| Number of electrons in the unit cell =      1072.0798505811
   128 Broy./SMGL  0.30E+00   13.7    10.55116605     -3180.1269238423  8.91E+01
 SMEAGOL DEBUG| Number of electrons in the unit cell =      1036.9080152254
   129 Broy./SMGL  0.30E+00   12.8     9.70764761     -3405.9469383480 -2.26E+02
 SMEAGOL DEBUG| Number of electrons in the unit cell =      1040.9797017761
   130 Broy./SMGL  0.30E+00   13.6     3.00202908     -3131.9897304892  2.74E+02
 SMEAGOL DEBUG| Number of electrons in the unit cell =      1052.0196859403
   131 Broy./SMGL  0.30E+00   13.7    11.84272011     -3117.6949249520  1.43E+01
 SMEAGOL DEBUG| Number of electrons in the unit cell =      1053.5697392105
   132 Broy./SMGL  0.30E+00   13.0     0.55524141     -3145.5107032980 -2.78E+01
 SMEAGOL DEBUG| Number of electrons in the unit cell =      1054.1459689673
   133 Broy./SMGL  0.30E+00   13.7     0.38494235     -3155.2571385129 -9.75E+00
 SMEAGOL DEBUG| Number of electrons in the unit cell =      1054.6607546083
   134 Broy./SMGL  0.30E+00   13.5     0.20323773     -3161.3897343007 -6.13E+00
 SMEAGOL DEBUG| Number of electrons in the unit cell =      1055.3406194493
   135 Broy./SMGL  0.30E+00   13.0    11.63129821     -3169.3521645710 -7.96E+00
 SMEAGOL DEBUG| Number of electrons in the unit cell =      1055.3721202892
   136 Broy./SMGL  0.30E+00   13.0     3.00128816     -3055.9283213597  1.13E+02
 SMEAGOL DEBUG| Number of electrons in the unit cell =      1057.4895923104
   137 Broy./SMGL  0.30E+00   14.5     9.80639354     -3027.3621415673  2.86E+01
 SMEAGOL DEBUG| Number of electrons in the unit cell =      1058.6682748542
   138 Broy./SMGL  0.30E+00   13.0     1.17658134     -3153.8515253500 -1.26E+02
 SMEAGOL DEBUG| Number of electrons in the unit cell =      1059.0147569389
   139 Broy./SMGL  0.30E+00   12.9     0.56035263     -3236.7242202830 -8.29E+01
 SMEAGOL DEBUG| Number of electrons in the unit cell =      1058.7768550743
   140 Broy./SMGL  0.30E+00   14.0     1.02449332     -3207.4243397571  2.93E+01
 SMEAGOL DEBUG| Number of electrons in the unit cell =      1058.8416851982
   141 Broy./SMGL  0.30E+00   14.2     1.17452688     -3170.2161384780  3.72E+01
 SMEAGOL DEBUG| Number of electrons in the unit cell =      1058.4903300428
   142 Broy./SMGL  0.30E+00   12.9     1.25645489     -3185.3959390560 -1.52E+01
 SMEAGOL DEBUG| Number of electrons in the unit cell =      1058.4212442355
   143 Broy./SMGL  0.30E+00   13.5     1.06254040     -3155.5503869596  2.98E+01
 SMEAGOL DEBUG| Number of electrons in the unit cell =      1058.0747551103
   144 Broy./SMGL  0.30E+00   13.6     0.73457615     -3183.4175474997 -2.79E+01
 SMEAGOL DEBUG| Number of electrons in the unit cell =      1057.9390241120
   145 Broy./SMGL  0.30E+00   13.0     0.89816439     -3184.3791573833 -9.62E-01
 SMEAGOL DEBUG| Number of electrons in the unit cell =      1055.1842724468
   146 Broy./SMGL  0.30E+00   13.6     4.31797966     -3198.4992437409 -1.41E+01
 SMEAGOL DEBUG| Number of electrons in the unit cell =      1059.0630013952
   147 Broy./SMGL  0.30E+00   13.6     6.97444961     -3159.7009868110  3.88E+01
 SMEAGOL DEBUG| Number of electrons in the unit cell =      1057.6399347490
   148 Broy./SMGL  0.30E+00   13.0     5.52245099     -3089.5609749279  7.01E+01
 SMEAGOL DEBUG| Number of electrons in the unit cell =      1056.9387712402
   149 Broy./SMGL  0.30E+00   14.1     1.16508239     -3154.6292237780 -6.51E+01
 SMEAGOL DEBUG| Number of electrons in the unit cell =      1057.0122603468
   150 Broy./SMGL  0.30E+00   14.0     0.27651320     -3177.5966526768 -2.30E+01
 SMEAGOL DEBUG| Number of electrons in the unit cell =      1057.0300860165
   151 Broy./SMGL  0.30E+00   13.0     0.52565601     -3180.4738283613 -2.88E+00
 SMEAGOL DEBUG| Number of electrons in the unit cell =      1057.0799074428
   152 Broy./SMGL  0.30E+00   14.3     0.52203990     -3171.2600747794  9.21E+00
 SMEAGOL DEBUG| Number of electrons in the unit cell =      1057.1211759527
   153 Broy./SMGL  0.30E+00   13.8     0.49724488     -3179.2121406739 -7.95E+00
 SMEAGOL DEBUG| Number of electrons in the unit cell =      1057.2147176502
   154 Broy./SMGL  0.30E+00   13.0     0.40201548     -3171.0753306772  8.14E+00
 SMEAGOL DEBUG| Number of electrons in the unit cell =      1057.2567834902
   155 Broy./SMGL  0.30E+00   12.9     0.44878060     -3175.4589902381 -4.38E+00
 SMEAGOL DEBUG| Number of electrons in the unit cell =      1056.9159781413
   156 Broy./SMGL  0.30E+00   14.9     0.97694034     -3171.5867527662  3.87E+00
 SMEAGOL DEBUG| Number of electrons in the unit cell =      1060.6068651001
   157 Broy./SMGL  0.30E+00   13.1     1.63101318     -3201.2762064405 -2.97E+01
 SMEAGOL DEBUG| Number of electrons in the unit cell =      1062.8600750468
   158 Broy./SMGL  0.30E+00   13.0     1.91796511     -3182.1581940289  1.91E+01
 SMEAGOL DEBUG| Number of electrons in the unit cell =      1065.5743616400
   159 Broy./SMGL  0.30E+00   14.5     1.96094735     -3152.7501370354  2.94E+01
 SMEAGOL DEBUG| Number of electrons in the unit cell =      1068.8281861143
   160 Broy./SMGL  0.30E+00   13.0     9.24391057     -3125.2006919172  2.75E+01
 SMEAGOL DEBUG| Number of electrons in the unit cell =      1068.4416449599
   161 Broy./SMGL  0.30E+00   13.0     9.37680634     -3017.5450484226  1.08E+02
 SMEAGOL DEBUG| Number of electrons in the unit cell =      1072.0056968938
   162 Broy./SMGL  0.30E+00   14.4     2.05213107     -3114.0231091838 -9.65E+01
 SMEAGOL DEBUG| Number of electrons in the unit cell =      1065.5837557284
   163 Broy./SMGL  0.30E+00   13.1     1.88966574     -3127.5265444533 -1.35E+01
 SMEAGOL DEBUG| Number of electrons in the unit cell =      1066.5639469233
   164 Broy./SMGL  0.30E+00   13.1     2.17266956     -3145.3882582716 -1.79E+01
 SMEAGOL DEBUG| Number of electrons in the unit cell =      1065.4845068907
   165 Broy./SMGL  0.30E+00   13.9     1.98088831     -3189.2166869600 -4.38E+01
 SMEAGOL DEBUG| Number of electrons in the unit cell =      1067.8145878905
   166 Broy./SMGL  0.30E+00   13.7     2.08206665     -3148.9973343395  4.02E+01
 SMEAGOL DEBUG| Number of electrons in the unit cell =      1067.2715524515
   167 Broy./SMGL  0.30E+00   13.0     1.97803467     -3183.3515970390 -3.44E+01
 SMEAGOL DEBUG| Number of electrons in the unit cell =      1066.8155654212
   168 Broy./SMGL  0.30E+00   13.5     1.91401645     -3180.0239774178  3.33E+00
 SMEAGOL DEBUG| Number of electrons in the unit cell =      1066.0857334035
   169 Broy./SMGL  0.30E+00   13.6     1.69786345     -3142.4559823333  3.76E+01
 SMEAGOL DEBUG| Number of electrons in the unit cell =      1066.8293163625
   170 Broy./SMGL  0.30E+00   13.3     1.61306904     -3194.9734915982 -5.25E+01
 SMEAGOL DEBUG| Number of electrons in the unit cell =      1066.6113272775
   171 Broy./SMGL  0.30E+00   13.6     1.64006858     -3196.6684101751 -1.69E+00
 SMEAGOL DEBUG| Number of electrons in the unit cell =      1066.0695170506
   172 Broy./SMGL  0.30E+00   13.6     1.29182230     -3180.0691922124  1.66E+01
 SMEAGOL DEBUG| Number of electrons in the unit cell =      1066.0374718742
   173 Broy./SMGL  0.30E+00   13.2     1.28481713     -3179.4867897363  5.82E-01
 SMEAGOL DEBUG| Number of electrons in the unit cell =      1065.9128594964
   174 Broy./SMGL  0.30E+00   13.0     1.18904324     -3194.7751332875 -1.53E+01
 SMEAGOL DEBUG| Number of electrons in the unit cell =      1065.7009020559
   175 Broy./SMGL  0.30E+00   14.6     1.04423314     -3184.9037590417  9.87E+00
 SMEAGOL DEBUG| Number of electrons in the unit cell =      1065.4096592142
   176 Broy./SMGL  0.30E+00   13.0     1.40663958     -3189.3276843303 -4.42E+00
 SMEAGOL DEBUG| Number of electrons in the unit cell =      1065.3784375806
   177 Broy./SMGL  0.30E+00   12.9     1.40339071     -3178.3348935108  1.10E+01
 SMEAGOL DEBUG| Number of electrons in the unit cell =      1065.0854697612
   178 Broy./SMGL  0.30E+00   14.7     1.19758074     -3180.6778334528 -2.34E+00
 SMEAGOL DEBUG| Number of electrons in the unit cell =      1065.0413950206
   179 Broy./SMGL  0.30E+00   13.2     1.27043561     -3179.5556339322  1.12E+00
 SMEAGOL DEBUG| Number of electrons in the unit cell =      1064.7518772730
   180 Broy./SMGL  0.30E+00   13.0     1.06603255     -3183.8855492930 -4.33E+00
 SMEAGOL DEBUG| Number of electrons in the unit cell =      1064.8792855380
   181 Broy./SMGL  0.30E+00   16.6     1.07641580     -3162.6177652527  2.13E+01
 SMEAGOL DEBUG| Number of electrons in the unit cell =      1064.7086256042
   182 Broy./SMGL  0.30E+00   13.0     0.96209996     -3187.4367154518 -2.48E+01
 SMEAGOL DEBUG| Number of electrons in the unit cell =      1064.6595411243
   183 Broy./SMGL  0.30E+00   12.9     0.89424812     -3170.0363133849  1.74E+01
 SMEAGOL DEBUG| Number of electrons in the unit cell =      1064.6811452625
   184 Broy./SMGL  0.30E+00   14.5     0.62553243     -3178.6741729468 -8.64E+00
 SMEAGOL DEBUG| Number of electrons in the unit cell =      1064.5878195569
   185 Broy./SMGL  0.30E+00   13.0     0.57132275     -3182.5705335047 -3.90E+00
 SMEAGOL DEBUG| Number of electrons in the unit cell =      1064.6416740258
   186 Broy./SMGL  0.30E+00   12.9     0.76328481     -3171.7615343683  1.08E+01
 SMEAGOL DEBUG| Number of electrons in the unit cell =      1064.6037172450
   187 Broy./SMGL  0.30E+00   14.3     0.57460467     -3180.4945987528 -8.73E+00
 SMEAGOL DEBUG| Number of electrons in the unit cell =      1064.5919594724
   188 Broy./SMGL  0.30E+00   12.9     0.49909612     -3177.2283744562  3.27E+00
 SMEAGOL DEBUG| Number of electrons in the unit cell =      1064.5995413322
   189 Broy./SMGL  0.30E+00   13.0     0.56227566     -3176.9013403759  3.27E-01
 SMEAGOL DEBUG| Number of electrons in the unit cell =      1064.6264395384
   190 Broy./SMGL  0.30E+00   21.7     0.59098883     -3180.2120178169 -3.31E+00
 SMEAGOL DEBUG| Number of electrons in the unit cell =      1064.5650423016
   191 Broy./SMGL  0.30E+00   14.0     0.48104373     -3181.6727587294 -1.46E+00
 SMEAGOL DEBUG| Number of electrons in the unit cell =      1064.6503822649
   192 Broy./SMGL  0.30E+00   13.0     0.78814563     -3168.9047606374  1.28E+01
 SMEAGOL DEBUG| Number of electrons in the unit cell =      1064.6110286592
   193 Broy./SMGL  0.30E+00   12.9     0.75919400     -3184.1772011139 -1.53E+01
 SMEAGOL DEBUG| Number of electrons in the unit cell =      1064.6275820020
   194 Broy./SMGL  0.30E+00   14.2     0.86426359     -3175.7745315231  8.40E+00
 SMEAGOL DEBUG| Number of electrons in the unit cell =      1064.6175021858
   195 Broy./SMGL  0.30E+00   13.0     0.96785775     -3177.9306057023 -2.16E+00
 SMEAGOL DEBUG| Number of electrons in the unit cell =      1064.6844856049
   196 Broy./SMGL  0.30E+00   13.0     0.82750386     -3172.7777373826  5.15E+00
 SMEAGOL DEBUG| Number of electrons in the unit cell =      1064.6379665483
   197 Broy./SMGL  0.30E+00   14.5     1.02214834     -3185.8884766399 -1.31E+01
 SMEAGOL DEBUG| Number of electrons in the unit cell =      1064.6564096795
   198 Broy./SMGL  0.30E+00   12.9     0.77252105     -3173.3604291314  1.25E+01
 SMEAGOL DEBUG| Number of electrons in the unit cell =      1064.6930172043
   199 Broy./SMGL  0.30E+00   13.0     0.90256926     -3176.9810151791 -3.62E+00
 SMEAGOL DEBUG| Number of electrons in the unit cell =      1064.6777427441
   200 Broy./SMGL  0.30E+00   16.8     0.94950797     -3181.1901371176 -4.21E+00
 SMEAGOL DEBUG| Number of electrons in the unit cell =      1064.6443147620
   201 Broy./SMGL  0.30E+00   12.9     1.04816026     -3176.5873732594  4.60E+00
 SMEAGOL DEBUG| Number of electrons in the unit cell =      1064.7473070024
   202 Broy./SMGL  0.30E+00   13.0     0.78902717     -3166.9604529505  9.63E+00
 SMEAGOL DEBUG| Number of electrons in the unit cell =      1064.6980239317
   203 Broy./SMGL  0.30E+00   15.1     1.03129581     -3187.3851881452 -2.04E+01
 SMEAGOL DEBUG| Number of electrons in the unit cell =      1064.7206693360
   204 Broy./SMGL  0.30E+00   12.8     0.86550671     -3174.4835972409  1.29E+01
 SMEAGOL DEBUG| Number of electrons in the unit cell =      1064.7055620789
   205 Broy./SMGL  0.30E+00   13.0     1.19194662     -3178.4162400588 -3.93E+00
 SMEAGOL DEBUG| Number of electrons in the unit cell =      1064.7693850136
   206 Broy./SMGL  0.30E+00   14.4     0.99374096     -3173.8473646768  4.57E+00
 SMEAGOL DEBUG| Number of electrons in the unit cell =      1064.6884575416
   207 Broy./SMGL  0.30E+00   12.9     1.04863989     -3184.3708631746 -1.05E+01
 SMEAGOL DEBUG| Number of electrons in the unit cell =      1064.7593991610
   208 Broy./SMGL  0.30E+00   12.9     0.95486595     -3167.6781644290  1.67E+01
 SMEAGOL DEBUG| Number of electrons in the unit cell =      1064.7377671693
   209 Broy./SMGL  0.30E+00   15.2     0.92258414     -3181.2511719000 -1.36E+01
 SMEAGOL DEBUG| Number of electrons in the unit cell =      1064.7620932225
   210 Broy./SMGL  0.30E+00   12.9     0.86031114     -3175.0618158661  6.19E+00
 SMEAGOL DEBUG| Number of electrons in the unit cell =      1064.7341424897
   211 Broy./SMGL  0.30E+00   13.0     1.11792357     -3176.0723916139 -1.01E+00
 SMEAGOL DEBUG| Number of electrons in the unit cell =      1064.8324109063
   212 Broy./SMGL  0.30E+00   13.8     0.72567169     -3169.6693893661  6.40E+00
 SMEAGOL DEBUG| Number of electrons in the unit cell =      1064.7640761495
   213 Broy./SMGL  0.30E+00   14.0     0.80808629     -3187.6504602562 -1.80E+01
 SMEAGOL DEBUG| Number of electrons in the unit cell =      1064.8072680402
   214 Broy./SMGL  0.30E+00   13.0     0.94452115     -3171.3707872557  1.63E+01
 SMEAGOL DEBUG| Number of electrons in the unit cell =      1064.7983585483
   215 Broy./SMGL  0.30E+00   12.9     0.75771923     -3180.6785223483 -9.31E+00
 SMEAGOL DEBUG| Number of electrons in the unit cell =      1064.8188239135
   216 Broy./SMGL  0.30E+00   14.4     0.80718317     -3177.4958925064  3.18E+00
 SMEAGOL DEBUG| Number of electrons in the unit cell =      1064.7456697047
   217 Broy./SMGL  0.30E+00   13.0     1.11183449     -3181.1943142437 -3.70E+00
 SMEAGOL DEBUG| Number of electrons in the unit cell =      1064.8228618872
   218 Broy./SMGL  0.30E+00   13.0     0.79599280     -3164.9592722887  1.62E+01
 SMEAGOL DEBUG| Number of electrons in the unit cell =      1064.8023069919
   219 Broy./SMGL  0.30E+00   15.3     0.61442025     -3180.0403679948 -1.51E+01
 SMEAGOL DEBUG| Number of electrons in the unit cell =      1064.8255787281
   220 Broy./SMGL  0.30E+00   12.9     0.73853163     -3172.1721592850  7.87E+00
 SMEAGOL DEBUG| Number of electrons in the unit cell =      1064.8425574181
   221 Broy./SMGL  0.30E+00   13.0     0.68362858     -3176.1289882418 -3.96E+00
 SMEAGOL DEBUG| Number of electrons in the unit cell =      1064.8630637768
   222 Broy./SMGL  0.30E+00   14.7     0.73450452     -3179.3023755633 -3.17E+00
 SMEAGOL DEBUG| Number of electrons in the unit cell =      1064.7947648174
   223 Broy./SMGL  0.30E+00   13.1     0.88198937     -3182.6438470462 -3.34E+00
 SMEAGOL DEBUG| Number of electrons in the unit cell =      1064.8751383352
   224 Broy./SMGL  0.30E+00   12.9     0.71743528     -3166.5035533091  1.61E+01
 SMEAGOL DEBUG| Number of electrons in the unit cell =      1064.8482116133
   225 Broy./SMGL  0.30E+00   15.1     1.03989817     -3184.3200028653 -1.78E+01
 SMEAGOL DEBUG| Number of electrons in the unit cell =      1064.8469853988
   226 Broy./SMGL  0.30E+00   13.1     0.89233246     -3179.2969065280  5.02E+00
 SMEAGOL DEBUG| Number of electrons in the unit cell =      1064.7835583787
   227 Broy./SMGL  0.30E+00   12.9     1.04207768     -3179.0961448948  2.01E-01
 SMEAGOL DEBUG| Number of electrons in the unit cell =      1064.8921729581
   228 Broy./SMGL  0.30E+00   14.9     1.09080856     -3164.5293864786  1.46E+01
 SMEAGOL DEBUG| Number of electrons in the unit cell =      1064.8269152677
   229 Broy./SMGL  0.30E+00   13.0     1.03520754     -3186.2453478116 -2.17E+01
 SMEAGOL DEBUG| Number of electrons in the unit cell =      1064.8610204672
   230 Broy./SMGL  0.30E+00   12.9     0.84931380     -3171.0282682959  1.52E+01
 SMEAGOL DEBUG| Number of electrons in the unit cell =      1064.8599707881
   231 Broy./SMGL  0.30E+00   14.1     0.60139828     -3179.5490203326 -8.52E+00
 SMEAGOL DEBUG| Number of electrons in the unit cell =      1064.8732105510
   232 Broy./SMGL  0.30E+00   14.7     0.70167794     -3176.1280435546  3.42E+00
 SMEAGOL DEBUG| Number of electrons in the unit cell =      1064.9068606213
   233 Broy./SMGL  0.30E+00   13.0     0.75687774     -3178.8759755121 -2.75E+00
 SMEAGOL DEBUG| Number of electrons in the unit cell =      1064.8642304579
   234 Broy./SMGL  0.30E+00   14.7     0.77220505     -3185.0234652165 -6.15E+00
 SMEAGOL DEBUG| Number of electrons in the unit cell =      1064.8376026342
   235 Broy./SMGL  0.30E+00   14.0     0.83943610     -3175.5163930895  9.51E+00
 SMEAGOL DEBUG| Number of electrons in the unit cell =      1064.8648156397
   236 Broy./SMGL  0.30E+00   13.6     0.78047435     -3169.9770687544  5.54E+00
 SMEAGOL DEBUG| Number of electrons in the unit cell =      1064.9205762020
   237 Broy./SMGL  0.30E+00   14.0     1.09699911     -3174.9061253891 -4.93E+00
 SMEAGOL DEBUG| Number of electrons in the unit cell =      1064.8657321911
   238 Broy./SMGL  0.30E+00   13.9     0.87000290     -3186.3535417225 -1.14E+01
 SMEAGOL DEBUG| Number of electrons in the unit cell =      1064.8320481420
   239 Broy./SMGL  0.30E+00   13.0     1.14394309     -3174.1231937069  1.22E+01
 SMEAGOL DEBUG| Number of electrons in the unit cell =      1064.9135457060
   240 Broy./SMGL  0.30E+00   12.9     0.93811623     -3165.8174322771  8.31E+00
 SMEAGOL DEBUG| Number of electrons in the unit cell =      1064.8747141328
   241 Broy./SMGL  0.30E+00   14.6     0.94763607     -3184.4830762065 -1.87E+01
 SMEAGOL DEBUG| Number of electrons in the unit cell =      1064.8715310725
   242 Broy./SMGL  0.30E+00   13.0     0.85473959     -3176.4344696445  8.05E+00
 SMEAGOL DEBUG| Number of electrons in the unit cell =      1064.9107447186
   243 Broy./SMGL  0.30E+00   12.9     0.74146349     -3173.9970219467  2.44E+00
 SMEAGOL DEBUG| Number of electrons in the unit cell =      1064.9274582268
   244 Broy./SMGL  0.30E+00   14.2     0.94412198     -3182.8293888401 -8.83E+00
 SMEAGOL DEBUG| Number of electrons in the unit cell =      1064.8795399831
   245 Broy./SMGL  0.30E+00   12.9     0.89146619     -3183.6132105708 -7.84E-01
 SMEAGOL DEBUG| Number of electrons in the unit cell =      1064.8635790209
   246 Broy./SMGL  0.30E+00   12.9     0.82091168     -3173.8485258628  9.76E+00
 SMEAGOL DEBUG| Number of electrons in the unit cell =      1064.9351664765
   247 Broy./SMGL  0.30E+00   14.5     0.85213625     -3171.7199839083  2.13E+00
 SMEAGOL DEBUG| Number of electrons in the unit cell =      1064.8611336393
   248 Broy./SMGL  0.30E+00   13.0     0.82848542     -3186.6510022555 -1.49E+01
 SMEAGOL DEBUG| Number of electrons in the unit cell =      1064.8755549119
   249 Broy./SMGL  0.30E+00   12.9     1.04466237     -3169.3724367100  1.73E+01
 SMEAGOL DEBUG| Number of electrons in the unit cell =      1064.9335169631
   250 Broy./SMGL  0.30E+00   14.1     0.93354552     -3173.5927815306 -4.22E+00
 SMEAGOL DEBUG| Number of electrons in the unit cell =      1064.8732466180
   251 Broy./SMGL  0.30E+00   13.8     0.93750974     -3185.1754410807 -1.16E+01
 SMEAGOL DEBUG| Number of electrons in the unit cell =      1064.8739032620
   252 Broy./SMGL  0.30E+00   12.8     0.94304656     -3172.1560387297  1.30E+01
 SMEAGOL DEBUG| Number of electrons in the unit cell =      1064.9062713928
   253 Broy./SMGL  0.30E+00   14.0     0.58140747     -3170.9330484545  1.22E+00
 SMEAGOL DEBUG| Number of electrons in the unit cell =      1064.9047618007
   254 Broy./SMGL  0.30E+00   13.9     0.94046720     -3180.4096790565 -9.48E+00
 SMEAGOL DEBUG| Number of electrons in the unit cell =      1064.8886190669
   255 Broy./SMGL  0.30E+00   12.9     0.77969948     -3179.0899238449  1.32E+00
 SMEAGOL DEBUG| Number of electrons in the unit cell =      1064.9230852102
   256 Broy./SMGL  0.30E+00   13.8     0.90948417     -3172.5388737749  6.55E+00
 SMEAGOL DEBUG| Number of electrons in the unit cell =      1064.8694054184
