 DBCSR| CPU Multiplication driver                                           BLAS
 DBCSR| Multrec recursion limit                                              512
 DBCSR| Multiplication stack size                                           1000
 DBCSR| Maximum elements for images                                    UNLIMITED
 DBCSR| Multiplicative factor virtual images                                   1
 DBCSR| Use multiplication densification                                       T
 DBCSR| Multiplication size stacks                                             3
 DBCSR| Use memory pool for CPU allocation                                     F
 DBCSR| Number of 3D layers                                               SINGLE
 DBCSR| Use MPI memory allocation                                              F
 DBCSR| Use RMA algorithm                                                      F
 DBCSR| Use Communication thread                                               T
 DBCSR| Communication thread load                                             83
 DBCSR| MPI: My node id                                                        0
 DBCSR| MPI: Number of nodes                                                 192
 DBCSR| OMP: Current number of threads                                         2
 DBCSR| OMP: Max number of threads                                             2
 DBCSR| Split modifier for TAS multiplication algorithm                  1.0E+00


  **** **** ******  **  PROGRAM STARTED AT               2023-11-28 10:24:19.116
 ***** ** ***  *** **   PROGRAM STARTED ON                             nid001129
 **    ****   ******    PROGRAM STARTED BY                                cahart
 ***** **    ** ** **   PROGRAM PROCESS ID                                161408
  **** **  *******  **  PROGRAM STARTED IN /mnt/lustre/a2fs-work2/work/e05/e05/c
                                           ahart/postdoc/transport/cp2k-smeagol-
                                           examples/au-h2/cp2k-smeagol/transmiss
                                           ion/kpoints-3-3-20_omp-2_ParallelOver
                                           KNum-3_contour-single_6s

 CP2K| version string:                 CP2K version 2022.1 (Development Version)
 CP2K| source code revision number:                                  git:215a478
 CP2K| cp2kflags: omp libint fftw3 libxc elpa parallel mpi3 scalapack mkl       
 CP2K| is freely available from                            https://www.cp2k.org/
 CP2K| Program compiled at                          Mon 30 Oct 16:32:24 GMT 2023
 CP2K| Program compiled on                                                  ln03
 CP2K| Program compiled for                                                local
 CP2K| Data directory path    /work/e05/e05/cahart/smeagol/smgl/cp2k-private-ser
 CP2K| Input file name                                             2_dft_wfn.inp

 GLOBAL| Force Environment number                                              1
 GLOBAL| Basis set file name                                        BASIS_MOLOPT
 GLOBAL| Potential file name                                      GTH_POTENTIALS
 GLOBAL| MM Potential file name                                     MM_POTENTIAL
 GLOBAL| Coordinate file name                                             em.xyz
 GLOBAL| Method name                                                        CP2K
 GLOBAL| Project name                                                    dft_wfn
 GLOBAL| Run type                                                         ENERGY
 GLOBAL| FFT library                                                       FFTW3
 GLOBAL| Diagonalization library                                            ELPA
 GLOBAL| Minimum number of eigenvectors for ELPA usage                        16
 GLOBAL| Orthonormality check for eigenvectors                          DISABLED
 GLOBAL| Matrix multiplication library                                 ScaLAPACK
 GLOBAL| All-to-all communication in single precision                          F
 GLOBAL| FFTs using library dependent lengths                                  T
 GLOBAL| Grid backend                                                       AUTO
 GLOBAL| Global print level                                               MEDIUM
 GLOBAL| MPI I/O enabled                                                       T
 GLOBAL| Total number of message passing processes                           192
 GLOBAL| Number of threads for this process                                    2
 GLOBAL| This output is from process                                           0
 GLOBAL| Stack size for threads created by OpenMP (OMP_STACKSIZE)        default
 GLOBAL| CPU model name                          AMD EPYC 7742 64-Core Processor
 GLOBAL| CPUID                                                              1002

 MEMORY| system memory details [Kb]
 MEMORY|                        rank 0           min           max       average
 MEMORY| MemTotal            263341976     263341712     263341976     263341888
 MEMORY| MemFree             241413836     241138020     241620196     241390684
 MEMORY| Buffers                     0             0             0             0
 MEMORY| Cached                1688896       1522724       1714484       1642032
 MEMORY| Slab                  2945220       2894928       2945220       2914893
 MEMORY| SReclaimable           122484        114216        122484        117442
 MEMORY| MemLikelyFree       243225216     242776372     243448896     243150158


 *** Fundamental physical constants (SI units) ***

 *** Literature: B. J. Mohr and B. N. Taylor,
 ***             CODATA recommended values of the fundamental physical
 ***             constants: 2006, Web Version 5.1
 ***             http://physics.nist.gov/constants

 Speed of light in vacuum [m/s]                             2.99792458000000E+08
 Magnetic constant or permeability of vacuum [N/A**2]       1.25663706143592E-06
 Electric constant or permittivity of vacuum [F/m]          8.85418781762039E-12
 Planck constant (h) [J*s]                                  6.62606896000000E-34
 Planck constant (h-bar) [J*s]                              1.05457162825177E-34
 Elementary charge [C]                                      1.60217648700000E-19
 Electron mass [kg]                                         9.10938215000000E-31
 Electron g factor [ ]                                     -2.00231930436220E+00
 Proton mass [kg]                                           1.67262163700000E-27
 Fine-structure constant                                    7.29735253760000E-03
 Rydberg constant [1/m]                                     1.09737315685270E+07
 Avogadro constant [1/mol]                                  6.02214179000000E+23
 Boltzmann constant [J/K]                                   1.38065040000000E-23
 Atomic mass unit [kg]                                      1.66053878200000E-27
 Bohr radius [m]                                            5.29177208590000E-11

 *** Conversion factors ***

 [u] -> [a.u.]                                              1.82288848426455E+03
 [Angstrom] -> [Bohr] = [a.u.]                              1.88972613288564E+00
 [a.u.] = [Bohr] -> [Angstrom]                              5.29177208590000E-01
 [a.u.] -> [s]                                              2.41888432650478E-17
 [a.u.] -> [fs]                                             2.41888432650478E-02
 [a.u.] -> [J]                                              4.35974393937059E-18
 [a.u.] -> [N]                                              8.23872205491840E-08
 [a.u.] -> [K]                                              3.15774647902944E+05
 [a.u.] -> [kJ/mol]                                         2.62549961709828E+03
 [a.u.] -> [kcal/mol]                                       6.27509468713739E+02
 [a.u.] -> [Pa]                                             2.94210107994716E+13
 [a.u.] -> [bar]                                            2.94210107994716E+08
 [a.u.] -> [atm]                                            2.90362800883016E+08
 [a.u.] -> [eV]                                             2.72113838565563E+01
 [a.u.] -> [Hz]                                             6.57968392072181E+15
 [a.u.] -> [1/cm] (wave numbers)                            2.19474631370540E+05
 [a.u./Bohr**2] -> [1/cm]                                   5.14048714338585E+03
 

 CELL_TOP| Volume [angstrom^3]:                                      3044.391638
 CELL_TOP| Vector a [angstrom     8.867     0.000     0.000   |a| =     8.867120
 CELL_TOP| Vector b [angstrom     0.000     8.867     0.000   |b| =     8.867120
 CELL_TOP| Vector c [angstrom     0.000     0.000    38.720   |c| =    38.720000
 CELL_TOP| Angle (b,c), alpha [degree]:                                90.000000
 CELL_TOP| Angle (a,c), beta  [degree]:                                90.000000
 CELL_TOP| Angle (a,b), gamma [degree]:                                90.000000
 CELL_TOP| Numerically orthorhombic:                                         YES
 CELL_TOP| Periodicity                                                       XYZ

 GENERATE|  Preliminary Number of Bonds generated:                             0
 GENERATE|  Achieved consistency in connectivity generation.

 CELL| Volume [angstrom^3]:                                          3044.391638
 CELL| Vector a [angstrom]:       8.867     0.000     0.000   |a| =     8.867120
 CELL| Vector b [angstrom]:       0.000     8.867     0.000   |b| =     8.867120
 CELL| Vector c [angstrom]:       0.000     0.000    38.720   |c| =    38.720000
 CELL| Angle (b,c), alpha [degree]:                                    90.000000
 CELL| Angle (a,c), beta  [degree]:                                    90.000000
 CELL| Angle (a,b), gamma [degree]:                                    90.000000
 CELL| Numerically orthorhombic:                                             YES
 CELL| Periodicity                                                           XYZ

 CELL_REF| Volume [angstrom^3]:                                      3044.391638
 CELL_REF| Vector a [angstrom     8.867     0.000     0.000   |a| =     8.867120
 CELL_REF| Vector b [angstrom     0.000     8.867     0.000   |b| =     8.867120
 CELL_REF| Vector c [angstrom     0.000     0.000    38.720   |c| =    38.720000
 CELL_REF| Angle (b,c), alpha [degree]:                                90.000000
 CELL_REF| Angle (a,c), beta  [degree]:                                90.000000
 CELL_REF| Angle (a,b), gamma [degree]:                                90.000000
 CELL_REF| Numerically orthorhombic:                                         YES
 CELL_REF| Periodicity                                                       XYZ

 *** WARNING in cryssym.F:165 :: Symmetry library SPGLIB not available ***


 *******************************************************************************
                                    Kpoints
 *******************************************************************************
 BRILLOUIN| K-point scheme                                        Monkhorst-Pack
 BRILLOUIN| K-Point grid                                             3    3    1
 BRILLOUIN| Accuracy in Symmetry determination                      0.100000E-07
 BRILLOUIN| K-Point point group symmetrization                               OFF
 BRILLOUIN| Wavefunction type                                            COMPLEX
 BRILLOUIN| Use full k-point grid     
 BRILLOUIN| List of Kpoints [2 Pi/Bohr]                                        9
 BRILLOUIN| Number           Weight            X              Y              Z
 BRILLOUIN|     1           0.11111       -0.33333       -0.33333        0.00000
 BRILLOUIN|     2           0.11111       -0.33333        0.00000        0.00000
 BRILLOUIN|     3           0.11111       -0.33333        0.33333        0.00000
 BRILLOUIN|     4           0.11111        0.00000       -0.33333        0.00000
 BRILLOUIN|     5           0.11111        0.00000        0.00000        0.00000
 BRILLOUIN|     6           0.11111        0.00000        0.33333        0.00000
 BRILLOUIN|     7           0.11111        0.33333       -0.33333        0.00000
 BRILLOUIN|     8           0.11111        0.33333        0.00000        0.00000
 BRILLOUIN|     9           0.11111        0.33333        0.33333        0.00000
 *******************************************************************************

 *******************************************************************************
 *******************************************************************************
 **                                                                           **
 **     #####                         ##              ##                      **
 **    ##   ##            ##          ##              ##                      **
 **   ##     ##                       ##            ######                    **
 **   ##     ##  ##   ##  ##   #####  ##  ##   ####   ##    #####    #####    **
 **   ##     ##  ##   ##  ##  ##      ## ##   ##      ##   ##   ##  ##   ##   **
 **   ##  ## ##  ##   ##  ##  ##      ####     ###    ##   ######   ######    **
 **    ##  ###   ##   ##  ##  ##      ## ##      ##   ##   ##       ##        **
 **     #######   #####   ##   #####  ##  ##  ####    ##    #####   ##        **
 **           ##                                                    ##        **
 **                                                                           **
 **                                                ... make the atoms dance   **
 **                                                                           **
 **            Copyright (C) by CP2K developers group (2000-2022)             **
 **                      J. Chem. Phys. 152, 194103 (2020)                    **
 **                                                                           **
 *******************************************************************************

 DFT| Spin restricted Kohn-Sham (RKS) calculation                            RKS
 DFT| Multiplicity                                                             2
 DFT| Number of spin states                                                    1
 DFT| Charge                                                                   0
 DFT| Self-interaction correction (SIC)                                       NO
 DFT| Cutoffs: density                                              1.000000E-10
 DFT|          gradient                                             1.000000E-10
 DFT|          tau                                                  1.000000E-10
 DFT|          cutoff_smoothing_range                               0.000000E+00
 DFT| XC density smoothing                                                  NONE
 DFT| XC derivatives                                                          PW

 FUNCTIONAL| PBE:
 FUNCTIONAL| J.P.Perdew, K.Burke, M.Ernzerhof, Phys. Rev. Letter, vol. 77, n 18,
 FUNCTIONAL|  pp. 3865-3868, (1996){spin unpolarized}                           


 QS| Method:                                                                 GPW
 QS| Density plane wave grid type                        NON-SPHERICAL FULLSPACE
 QS| Number of grid levels:                                                    4
 QS| Density cutoff [a.u.]:                                                300.0
 QS| Multi grid cutoff [a.u.]: 1) grid level                               300.0
 QS|                           2) grid level                               100.0
 QS|                           3) grid level                                33.3
 QS|                           4) grid level                                11.1
 QS| Grid level progression factor:                                          3.0
 QS| Relative density cutoff [a.u.]:                                        30.0
 QS| Interaction thresholds: eps_pgf_orb:                                1.0E-05
 QS|                         eps_filter_matrix:                          0.0E+00
 QS|                         eps_core_charge:                            1.0E-12
 QS|                         eps_rho_gspace:                             1.0E-10
 QS|                         eps_rho_rspace:                             1.0E-10
 QS|                         eps_gvg_rspace:                             1.0E-05
 QS|                         eps_ppl:                                    1.0E-02
 QS|                         eps_ppnl:                                   1.0E-07


 ATOMIC KIND INFORMATION

  1. Atomic kind: Au_lead                               Number of atoms:      72

     Orbital Basis Set                                             SZV-CUSTOM-q1

       Number of orbital shell sets:                                           1
       Number of orbital shells:                                               1
       Number of primitive Cartesian functions:                                5
       Number of Cartesian basis functions:                                    1
       Number of spherical basis functions:                                    1
       Norm type:                                                              2

       Normalised Cartesian orbitals:

                        Set   Shell   Orbital            Exponent    Coefficient

                          1       1    1s                0.888736      -1.612085
                                                         0.793745       3.367506
                                                         0.708932      -1.928374
                                                         0.148335       0.135826
                                                         0.053004       0.035222

       Atomic covalent radius [Angstrom]:                                  1.340

       Atomic van der Waals radius [Angstrom]:                             1.660

     GTH Potential information for                                   GTH-PADE-q1

       Description:                       Goedecker-Teter-Hutter pseudopotential
                                           Goedecker et al., PRB 54, 1703 (1996)
                                          Hartwigsen et al., PRB 58, 3641 (1998)
                                                      Krack, TCA 114, 145 (2005)

       Gaussian exponent of the core charge distribution:               1.183432
       Electronic configuration (s p d ...):                                   1

       Parameters of the local part of the GTH pseudopotential:

                          rloc        C1          C2          C3          C4
                        0.650000   -1.963712   -1.698123

       Parameters of the non-local part of the GTH pseudopotential:

                   l      r(l)      h(i,j,l)

                   0    0.919308    1.539599    0.181557   -0.193238
                                    0.181557   -0.468779    0.498938
                                   -0.193238    0.498938   -0.792039
                   1    1.140351    0.471229    0.210248   -0.062360
                                    0.210248   -0.497538    0.147570
                                   -0.062360    0.147570   -0.209758

  2. Atomic kind: Au                                    Number of atoms:      39

     Orbital Basis Set                                         SZV-MOLOPT-SR-GTH

       Number of orbital shell sets:                                           1
       Number of orbital shells:                                               3
       Number of primitive Cartesian functions:                                5
       Number of Cartesian basis functions:                                   10
       Number of spherical basis functions:                                    9
       Norm type:                                                              2

       Normalised Cartesian orbitals:

                        Set   Shell   Orbital            Exponent    Coefficient

                          1       1    2s                2.950008       0.074626
                                                         1.563057      -0.007898
                                                         0.666664      -0.297688
                                                         0.251083       0.136809
                                                         0.081714       0.088198

                          1       2    3px               2.950008       0.148824
                                                         1.563057       0.025430
                                                         0.666664      -0.123003
                                                         0.251083       0.033648
                                                         0.081714       0.059008
                          1       2    3py               2.950008       0.148824
                                                         1.563057       0.025430
                                                         0.666664      -0.123003
                                                         0.251083       0.033648
                                                         0.081714       0.059008
                          1       2    3pz               2.950008       0.148824
                                                         1.563057       0.025430
                                                         0.666664      -0.123003
                                                         0.251083       0.033648
                                                         0.081714       0.059008

                          1       3    4dx2              2.950008      -0.139595
                                                         1.563057       1.319655
                                                         0.666664       0.377081
                                                         0.251083       0.046872
                                                         0.081714       0.001393
                          1       3    4dxy              2.950008      -0.241786
                                                         1.563057       2.285709
                                                         0.666664       0.653124
                                                         0.251083       0.081185
                                                         0.081714       0.002412
                          1       3    4dxz              2.950008      -0.241786
                                                         1.563057       2.285709
                                                         0.666664       0.653124
                                                         0.251083       0.081185
                                                         0.081714       0.002412
                          1       3    4dy2              2.950008      -0.139595
                                                         1.563057       1.319655
                                                         0.666664       0.377081
                                                         0.251083       0.046872
                                                         0.081714       0.001393
                          1       3    4dyz              2.950008      -0.241786
                                                         1.563057       2.285709
                                                         0.666664       0.653124
                                                         0.251083       0.081185
                                                         0.081714       0.002412
                          1       3    4dz2              2.950008      -0.139595
                                                         1.563057       1.319655
                                                         0.666664       0.377081
                                                         0.251083       0.046872
                                                         0.081714       0.001393

       Atomic covalent radius [Angstrom]:                                  1.340

       Atomic van der Waals radius [Angstrom]:                             1.660

     GTH Potential information for                                   GTH-PBE-q11

       Description:                       Goedecker-Teter-Hutter pseudopotential
                                           Goedecker et al., PRB 54, 1703 (1996)
                                          Hartwigsen et al., PRB 58, 3641 (1998)
                                                      Krack, TCA 114, 145 (2005)

       Gaussian exponent of the core charge distribution:               1.436369
       Electronic configuration (s p d ...):                           1   0  10

       Parameters of the local part of the GTH pseudopotential:

                          rloc        C1          C2          C3          C4
                        0.590000   10.517179

       Parameters of the non-local part of the GTH pseudopotential:

                   l      r(l)      h(i,j,l)

                   0    0.543847    5.786811   -2.250680
                                   -2.250680    2.905615
                   1    0.609173    4.284049   -4.071285
                                   -4.071285    4.817210
                   2    0.437309   -7.403281    3.010193
                                    3.010193   -3.413238

  3. Atomic kind: H                                     Number of atoms:       2

     Orbital Basis Set                                        DZVP-MOLOPT-SR-GTH

       Number of orbital shell sets:                                           1
       Number of orbital shells:                                               3
       Number of primitive Cartesian functions:                                5
       Number of Cartesian basis functions:                                    5
       Number of spherical basis functions:                                    5
       Norm type:                                                              2

       Normalised Cartesian orbitals:

                        Set   Shell   Orbital            Exponent    Coefficient

                          1       1    2s               10.068468      -0.133023
                                                         2.680223      -0.177618
                                                         0.791502      -0.258419
                                                         0.239116      -0.107525
                                                         0.082193      -0.014019

                          1       2    3s               10.068468       0.344673
                                                         2.680223       1.819821
                                                         0.791502      -0.999069
                                                         0.239116       0.017430
                                                         0.082193       0.082660

                          1       3    3px              10.068468       0.155326
                                                         2.680223       0.367157
                                                         0.791502       0.311480
                                                         0.239116       0.080105
                                                         0.082193       0.033440
                          1       3    3py              10.068468       0.155326
                                                         2.680223       0.367157
                                                         0.791502       0.311480
                                                         0.239116       0.080105
                                                         0.082193       0.033440
                          1       3    3pz              10.068468       0.155326
                                                         2.680223       0.367157
                                                         0.791502       0.311480
                                                         0.239116       0.080105
                                                         0.082193       0.033440

       Atomic covalent radius [Angstrom]:                                  0.320

       Atomic van der Waals radius [Angstrom]:                             1.090

     GTH Potential information for                                    GTH-PBE-q1

       Description:                       Goedecker-Teter-Hutter pseudopotential
                                           Goedecker et al., PRB 54, 1703 (1996)
                                          Hartwigsen et al., PRB 58, 3641 (1998)
                                                      Krack, TCA 114, 145 (2005)

       Gaussian exponent of the core charge distribution:              12.500000
       Electronic configuration (s p d ...):                                   1

       Parameters of the local part of the GTH pseudopotential:

                          rloc        C1          C2          C3          C4
                        0.200000   -4.178900    0.724463


 MOLECULE KIND INFORMATION


 All atoms are their own molecule, skipping detailed information


 TOTAL NUMBERS AND MAXIMUM NUMBERS

  Total number of            - Atomic kinds:                                   3
                             - Atoms:                                        113
                             - Shell sets:                                   113
                             - Shells:                                       195
                             - Primitive Cartesian functions:                565
                             - Cartesian basis functions:                    472
                             - Spherical basis functions:                    433

  Maximum angular momentum of- Orbital basis functions:                        2
                             - Local part of the GTH pseudopotential:          2
                             - Non-local part of the GTH pseudopotential:      5


 MODULE QUICKSTEP: ATOMIC COORDINATES IN ANGSTROM

   Atom Kind Element         X             Y             Z       Z(eff)     Mass
      1    1 Au   79      1.787000      1.281000      0.000000   1.0000 196.9666
      2    1 Au   79      0.309000      2.759000      2.090000   1.0000 196.9666
      3    1 Au   79      1.787000      1.281000      4.180000   1.0000 196.9666
      4    1 Au   79      0.309000      2.759000      6.270000   1.0000 196.9666
      5    1 Au   79      4.743000      1.281000      0.000000   1.0000 196.9666
      6    1 Au   79      3.265000      2.759000      2.090000   1.0000 196.9666
      7    1 Au   79      4.743000      1.281000      4.180000   1.0000 196.9666
      8    1 Au   79      3.265000      2.759000      6.270000   1.0000 196.9666
      9    1 Au   79      7.699000      1.281000      0.000000   1.0000 196.9666
     10    1 Au   79      6.221000      2.759000      2.090000   1.0000 196.9666
     11    1 Au   79      7.699000      1.281000      4.180000   1.0000 196.9666
     12    1 Au   79      6.221000      2.759000      6.270000   1.0000 196.9666
     13    1 Au   79      1.787000      4.236000      0.000000   1.0000 196.9666
     14    1 Au   79      0.309000      5.714000      2.090000   1.0000 196.9666
     15    1 Au   79      1.787000      4.236000      4.180000   1.0000 196.9666
     16    1 Au   79      0.309000      5.714000      6.270000   1.0000 196.9666
     17    1 Au   79      4.743000      4.236000      0.000000   1.0000 196.9666
     18    1 Au   79      3.265000      5.714000      2.090000   1.0000 196.9666
     19    1 Au   79      4.743000      4.236000      4.180000   1.0000 196.9666
     20    1 Au   79      3.265000      5.714000      6.270000   1.0000 196.9666
     21    1 Au   79      7.699000      4.236000      0.000000   1.0000 196.9666
     22    1 Au   79      6.221000      5.714000      2.090000   1.0000 196.9666
     23    1 Au   79      7.699000      4.236000      4.180000   1.0000 196.9666
     24    1 Au   79      6.221000      5.714000      6.270000   1.0000 196.9666
     25    1 Au   79      1.787000      7.192000      0.000000   1.0000 196.9666
     26    1 Au   79      0.309000      8.670000      2.090000   1.0000 196.9666
     27    1 Au   79      1.787000      7.192000      4.180000   1.0000 196.9666
     28    1 Au   79      0.309000      8.670000      6.270000   1.0000 196.9666
     29    1 Au   79      4.743000      7.192000      0.000000   1.0000 196.9666
     30    1 Au   79      3.265000      8.670000      2.090000   1.0000 196.9666
     31    1 Au   79      4.743000      7.192000      4.180000   1.0000 196.9666
     32    1 Au   79      3.265000      8.670000      6.270000   1.0000 196.9666
     33    1 Au   79      7.699000      7.192000      0.000000   1.0000 196.9666
     34    1 Au   79      6.221000      8.670000      2.090000   1.0000 196.9666
     35    1 Au   79      7.699000      7.192000      4.180000   1.0000 196.9666
     36    1 Au   79      6.221000      8.670000      6.270000   1.0000 196.9666
     37    2 Au   79      1.787000      1.281000      8.360000  11.0000 196.9666
     38    2 Au   79      1.787000      4.236000      8.360000  11.0000 196.9666
     39    2 Au   79      1.787000      7.192000      8.360000  11.0000 196.9666
     40    2 Au   79      4.743000      1.281000      8.360000  11.0000 196.9666
     41    2 Au   79      4.743000      4.236000      8.360000  11.0000 196.9666
     42    2 Au   79      4.743000      7.192000      8.360000  11.0000 196.9666
     43    2 Au   79      7.699000      1.281000      8.360000  11.0000 196.9666
     44    2 Au   79      7.699000      4.236000      8.360000  11.0000 196.9666
     45    2 Au   79      7.699000      7.192000      8.360000  11.0000 196.9666
     46    2 Au   79      0.309000      2.759000     10.450000  11.0000 196.9666
     47    2 Au   79      0.309000      5.714000     10.450000  11.0000 196.9666
     48    2 Au   79      0.309000      8.670000     10.450000  11.0000 196.9666
     49    2 Au   79      3.265000      2.759000     10.450000  11.0000 196.9666
     50    2 Au   79      3.265000      5.714000     10.450000  11.0000 196.9666
     51    2 Au   79      3.265000      8.670000     10.450000  11.0000 196.9666
     52    2 Au   79      6.221000      2.759000     10.450000  11.0000 196.9666
     53    2 Au   79      6.221000      5.714000     10.450000  11.0000 196.9666
     54    2 Au   79      6.221000      8.670000     10.450000  11.0000 196.9666
     55    2 Au   79      1.767000      4.215000     12.446000  11.0000 196.9666
     56    2 Au   79      1.766000      7.214000     12.446000  11.0000 196.9666
     57    2 Au   79      4.765000      4.213000     12.446000  11.0000 196.9666
     58    2 Au   79      4.767000      7.214000     12.445000  11.0000 196.9666
     59    2 Au   79      3.268000      5.717000     14.396000  11.0000 196.9666
     60    2 Au   79      3.267000      5.744000     17.050000  11.0000 196.9666
     61    3 H     1      3.254000      5.720000     18.927000   1.0000   1.0079
     62    3 H     1      3.260000      5.726000     19.796000   1.0000   1.0079
     63    2 Au   79      3.233000      5.712000     21.672000  11.0000 196.9666
     64    2 Au   79      3.264000      5.714000     24.326000  11.0000 196.9666
     65    2 Au   79      1.765000      4.213000     26.275000  11.0000 196.9666
     66    2 Au   79      1.765000      7.214000     26.274000  11.0000 196.9666
     67    2 Au   79      4.765000      4.214000     26.274000  11.0000 196.9666
     68    2 Au   79      4.765000      7.214000     26.275000  11.0000 196.9666
     69    2 Au   79      0.309000      2.759000     28.270000  11.0000 196.9666
     70    2 Au   79      0.309000      5.714000     28.270000  11.0000 196.9666
     71    2 Au   79      0.309000      8.670000     28.270000  11.0000 196.9666
     72    2 Au   79      3.265000      2.759000     28.270000  11.0000 196.9666
     73    2 Au   79      3.265000      5.714000     28.270000  11.0000 196.9666
     74    2 Au   79      3.265000      8.670000     28.270000  11.0000 196.9666
     75    2 Au   79      6.221000      2.759000     28.270000  11.0000 196.9666
     76    2 Au   79      6.221000      5.714000     28.270000  11.0000 196.9666
     77    2 Au   79      6.221000      8.670000     28.270000  11.0000 196.9666
     78    1 Au   79      1.787000      1.281000     30.360000   1.0000 196.9666
     79    1 Au   79      0.309000      2.759000     32.450000   1.0000 196.9666
     80    1 Au   79      1.787000      1.281000     34.540000   1.0000 196.9666
     81    1 Au   79      0.309000      2.759000     36.630000   1.0000 196.9666
     82    1 Au   79      4.743000      1.281000     30.360000   1.0000 196.9666
     83    1 Au   79      3.265000      2.759000     32.450000   1.0000 196.9666
     84    1 Au   79      4.743000      1.281000     34.540000   1.0000 196.9666
     85    1 Au   79      3.265000      2.759000     36.630000   1.0000 196.9666
     86    1 Au   79      7.699000      1.281000     30.360000   1.0000 196.9666
     87    1 Au   79      6.221000      2.759000     32.450000   1.0000 196.9666
     88    1 Au   79      7.699000      1.281000     34.540000   1.0000 196.9666
     89    1 Au   79      6.221000      2.759000     36.630000   1.0000 196.9666
     90    1 Au   79      1.787000      4.236000     30.360000   1.0000 196.9666
     91    1 Au   79      0.309000      5.714000     32.450000   1.0000 196.9666
     92    1 Au   79      1.787000      4.236000     34.540000   1.0000 196.9666
     93    1 Au   79      0.309000      5.714000     36.630000   1.0000 196.9666
     94    1 Au   79      4.743000      4.236000     30.360000   1.0000 196.9666
     95    1 Au   79      3.265000      5.714000     32.450000   1.0000 196.9666
     96    1 Au   79      4.743000      4.236000     34.540000   1.0000 196.9666
     97    1 Au   79      3.265000      5.714000     36.630000   1.0000 196.9666
     98    1 Au   79      7.699000      4.236000     30.360000   1.0000 196.9666
     99    1 Au   79      6.221000      5.714000     32.450000   1.0000 196.9666
    100    1 Au   79      7.699000      4.236000     34.540000   1.0000 196.9666
    101    1 Au   79      6.221000      5.714000     36.630000   1.0000 196.9666
    102    1 Au   79      1.787000      7.192000     30.360000   1.0000 196.9666
    103    1 Au   79      0.309000      8.670000     32.450000   1.0000 196.9666
    104    1 Au   79      1.787000      7.192000     34.540000   1.0000 196.9666
    105    1 Au   79      0.309000      8.670000     36.630000   1.0000 196.9666
    106    1 Au   79      4.743000      7.192000     30.360000   1.0000 196.9666
    107    1 Au   79      3.265000      8.670000     32.450000   1.0000 196.9666
    108    1 Au   79      4.743000      7.192000     34.540000   1.0000 196.9666
    109    1 Au   79      3.265000      8.670000     36.630000   1.0000 196.9666
    110    1 Au   79      7.699000      7.192000     30.360000   1.0000 196.9666
    111    1 Au   79      6.221000      8.670000     32.450000   1.0000 196.9666
    112    1 Au   79      7.699000      7.192000     34.540000   1.0000 196.9666
    113    1 Au   79      6.221000      8.670000     36.630000   1.0000 196.9666



 SCF PARAMETERS         Density guess:                                    ATOMIC
                        --------------------------------------------------------
                        max_scf:                                             500
                        max_scf_history:                                       0
                        max_diis:                                              4
                        --------------------------------------------------------
                        eps_scf:                                        1.00E-08
                        eps_scf_history:                                0.00E+00
                        eps_diis:                                       1.00E-01
                        eps_eigval:                                     1.00E-05
                        --------------------------------------------------------
                        level_shift [a.u.]:                             0.000000
                        added MOs                                       100    0
                        --------------------------------------------------------
                        Mixing method:                            BROYDEN_MIXING
                                                charge density mixing in g-space
                        --------------------------------------------------------
                        Smear method:                                FERMI_DIRAC
                        Electronic temperature [K]:                        300.0
                        Electronic temperature [a.u.]:                  9.50E-04
                        Accuracy threshold:                             1.00E-10
                        --------------------------------------------------------
                        No outer SCF

 PW_GRID| Information for grid number                                          1
 PW_GRID| Grid distributed over                                   192 processors
 PW_GRID| Real space group dimensions                                    12   16
 PW_GRID| the grid is blocked:                                               YES
 PW_GRID| Cutoff [a.u.]                                                    300.0
 PW_GRID| spherical cutoff:                                                   NO
 PW_GRID|   Bounds   1            -66      65                Points:         132
 PW_GRID|   Bounds   2            -66      65                Points:         132
 PW_GRID|   Bounds   3           -288     287                Points:         576
 PW_GRID| Volume element (a.u.^3)  0.2047E-02     Volume (a.u.^3)     20544.5734
 PW_GRID| Grid span                                                    FULLSPACE
 PW_GRID|   Distribution                         Average         Max         Min
 PW_GRID|   G-Vectors                            52272.0       52272       52272
 PW_GRID|   G-Rays                                 396.0         396         396
 PW_GRID|   Real Space Points                    52272.0       52272       52272

 PW_GRID| Information for grid number                                          2
 PW_GRID| Number of the reference grid                                         1
 PW_GRID| Grid distributed over                                   192 processors
 PW_GRID| Real space group dimensions                                    12   16
 PW_GRID| the grid is blocked:                                                NO
 PW_GRID| Cutoff [a.u.]                                                    100.0
 PW_GRID| spherical cutoff:                                                   NO
 PW_GRID|   Bounds   1            -37      37                Points:          75
 PW_GRID|   Bounds   2            -37      37                Points:          75
 PW_GRID|   Bounds   3           -165     164                Points:         330
 PW_GRID| Volume element (a.u.^3)  0.1107E-01     Volume (a.u.^3)     20544.5734
 PW_GRID| Grid span                                                    FULLSPACE
 PW_GRID|   Distribution                         Average         Max         Min
 PW_GRID|   G-Vectors                             9668.0       29700           0
 PW_GRID|   G-Rays                                 128.9         396           0
 PW_GRID|   Real Space Points                     9668.0       11550        7920

 PW_GRID| Information for grid number                                          3
 PW_GRID| Number of the reference grid                                         1
 PW_GRID| Grid distributed over                                   192 processors
 PW_GRID| Real space group dimensions                                    12   16
 PW_GRID| the grid is blocked:                                                NO
 PW_GRID| Cutoff [a.u.]                                                     33.3
 PW_GRID| spherical cutoff:                                                   NO
 PW_GRID|   Bounds   1            -22      21                Points:          44
 PW_GRID|   Bounds   2            -22      21                Points:          44
 PW_GRID|   Bounds   3            -96      95                Points:         192
 PW_GRID| Volume element (a.u.^3)  0.5527E-01     Volume (a.u.^3)     20544.5734
 PW_GRID| Grid span                                                    FULLSPACE
 PW_GRID|   Distribution                         Average         Max         Min
 PW_GRID|   G-Vectors                             1936.0       17424           0
 PW_GRID|   G-Rays                                  44.0         396           0
 PW_GRID|   Real Space Points                     1936.0        2304        1152

 PW_GRID| Information for grid number                                          4
 PW_GRID| Number of the reference grid                                         1
 PW_GRID| Grid distributed over                                   192 processors
 PW_GRID| Real space group dimensions                                    12   16
 PW_GRID| the grid is blocked:                                                NO
 PW_GRID| Cutoff [a.u.]                                                     11.1
 PW_GRID| spherical cutoff:                                                   NO
 PW_GRID|   Bounds   1            -12      12                Points:          25
 PW_GRID|   Bounds   2            -12      12                Points:          25
 PW_GRID|   Bounds   3            -55      54                Points:         110
 PW_GRID| Volume element (a.u.^3)  0.2988         Volume (a.u.^3)     20544.5734
 PW_GRID| Grid span                                                    FULLSPACE
 PW_GRID|   Distribution                         Average         Max         Min
 PW_GRID|   G-Vectors                              358.1        9900           0
 PW_GRID|   G-Rays                                  14.3         396           0
 PW_GRID|   Real Space Points                      358.1         660         220

 POISSON| Solver                                                        PERIODIC
 POISSON| Periodicity                                                        XYZ

 RS_GRID| Information for grid number                                          1
 RS_GRID|   Bounds   1            -66      65                Points:         132
 RS_GRID|   Bounds   2            -66      65                Points:         132
 RS_GRID|   Bounds   3           -288     287                Points:         576
 RS_GRID| Real space distribution over                                  6 groups
 RS_GRID| Real space distribution along direction                              2
 RS_GRID| Border size                                                         37
 RS_GRID| Real space distribution over                                 32 groups
 RS_GRID| Real space distribution along direction                              3
 RS_GRID| Border size                                                         37
 RS_GRID|   Distribution                         Average         Max         Min
 RS_GRID|   Planes                                  96.0          96          96
 RS_GRID|   Distribution                         Average         Max         Min
 RS_GRID|   Planes                                  92.0          92          92

 RS_GRID| Information for grid number                                          2
 RS_GRID|   Bounds   1            -37      37                Points:          75
 RS_GRID|   Bounds   2            -37      37                Points:          75
 RS_GRID|   Bounds   3           -165     164                Points:         330
 RS_GRID| Real space distribution over                                  6 groups
 RS_GRID| Real space distribution along direction                              2
 RS_GRID| Border size                                                         24
 RS_GRID| Real space distribution over                                 32 groups
 RS_GRID| Real space distribution along direction                              3
 RS_GRID| Border size                                                         24
 RS_GRID|   Distribution                         Average         Max         Min
 RS_GRID|   Planes                                  60.5          61          60
 RS_GRID|   Distribution                         Average         Max         Min
 RS_GRID|   Planes                                  58.3          59          58

 RS_GRID| Information for grid number                                          3
 RS_GRID|   Bounds   1            -22      21                Points:          44
 RS_GRID|   Bounds   2            -22      21                Points:          44
 RS_GRID|   Bounds   3            -96      95                Points:         192
 RS_GRID| Real space fully replicated
 RS_GRID| Group size                                                           1

 RS_GRID| Information for grid number                                          4
 RS_GRID|   Bounds   1            -12      12                Points:          25
 RS_GRID|   Bounds   2            -12      12                Points:          25
 RS_GRID|   Bounds   3            -55      54                Points:         110
 RS_GRID| Real space fully replicated
 RS_GRID| Group size                                                           1

 KPOINTS| Number of kpoint groups                                              1
 KPOINTS| Size of each kpoint group                                          192
 KPOINTS| Number of kpoints per group                                          9

 Number of electrons:                                                        503
 Number of occupied orbitals:                                                252
 Number of molecular orbitals:                                               352

 Number of orbital functions:                                                433
 Number of independent orbital functions:                                    433

 Extrapolation method: initial_guess

 Atomic guess: The first density matrix is obtained in terms of atomic orbitals
               and electronic configurations assigned to each atomic kind

 Guess for atomic kind: Au_lead

 Electronic structure
    Total number of core electrons                                         78.00
    Total number of valence electrons                                       1.00
    Total number of electrons                                              79.00
    Multiplicity                                                   not specified
    S   [  2.00  2.00  2.00  2.00  2.00] 1.00
    P   [  6.00  6.00  6.00  6.00]
    D   [ 10.00 10.00 10.00]
    F   [ 14.00]


 *******************************************************************************
                  Iteration          Convergence                     Energy [au]
 *******************************************************************************
                          1         0.00000                      -0.315441957668

 Energy components [Hartree]           Total Energy ::           -0.315441957668
                                        Band Energy ::           -0.265748774646
                                     Kinetic Energy ::            0.164012391411
                                   Potential Energy ::           -0.479454349079
                                      Virial (-V/T) ::            2.923281253043
                                        Core Energy ::           -0.333153414059
                                          XC Energy ::           -0.140407663150
                                     Coulomb Energy ::            0.158119119541
                       Total Pseudopotential Energy ::           -0.520964359256
                       Local Pseudopotential Energy ::           -0.549502423406
                    Nonlocal Pseudopotential Energy ::            0.028538064149
                                        Confinement ::            0.237985537857

 Orbital energies  State     L     Occupation   Energy[a.u.]          Energy[eV]

                       1     0          1.000      -0.265749           -7.231392


 Total Electron Density at R=0:                                         0.000004

 Guess for atomic kind: Au

 Electronic structure
    Total number of core electrons                                         68.00
    Total number of valence electrons                                      11.00
    Total number of electrons                                              79.00
    Multiplicity                                                   not specified
    S   [  2.00  2.00  2.00  2.00  2.00] 1.00
    P   [  6.00  6.00  6.00  6.00]
    D   [ 10.00 10.00]10.00
    F   [ 14.00]


 *******************************************************************************
                  Iteration          Convergence                     Energy [au]
 *******************************************************************************
                          1         0.00000                     -32.925420860277

 Energy components [Hartree]           Total Energy ::          -32.925420860277
                                        Band Energy ::           -1.039708645574
                                     Kinetic Energy ::           24.744064437587
                                   Potential Energy ::          -57.669485297863
                                      Virial (-V/T) ::            2.330639149576
                                        Core Energy ::          -60.089512277916
                                          XC Energy ::           -5.116883226844
                                     Coulomb Energy ::           32.280974644483
                       Total Pseudopotential Energy ::          -84.935087836392
                       Local Pseudopotential Energy ::          -67.537295193389
                    Nonlocal Pseudopotential Energy ::          -17.397792643003
                                        Confinement ::            1.015111208892

 Orbital energies  State     L     Occupation   Energy[a.u.]          Energy[eV]

                       1     0          1.000      -0.207365           -5.642685

                       1     2         10.000      -0.083234           -2.264923


 Total Electron Density at R=0:                                         0.000035

 Guess for atomic kind: H

 Electronic structure
    Total number of core electrons                                          0.00
    Total number of valence electrons                                       1.00
    Total number of electrons                                               1.00
    Multiplicity                                                   not specified
    S      1.00


 *******************************************************************************
                  Iteration          Convergence                     Energy [au]
 *******************************************************************************
                          1        0.250972E-02                  -0.375256815885
                          2        0.570752E-04                  -0.375258666164
                          3        0.832405E-09                  -0.375258667122

 Energy components [Hartree]           Total Energy ::           -0.375258667122
                                        Band Energy ::           -0.076317618391
                                     Kinetic Energy ::            0.771356566341
                                   Potential Energy ::           -1.146615233463
                                      Virial (-V/T) ::            1.486491829455
                                        Core Energy ::           -0.456090715790
                                          XC Energy ::           -0.314218627334
                                     Coulomb Energy ::            0.395050676003
                       Total Pseudopotential Energy ::           -1.238482237174
                       Local Pseudopotential Energy ::           -1.238482237174
                    Nonlocal Pseudopotential Energy ::            0.000000000000
                                        Confinement ::            0.110349550431

 Orbital energies  State     L     Occupation   Energy[a.u.]          Energy[eV]

                       1     0          1.000      -0.076318           -2.076708


 Total Electron Density at R=0:                                         0.425022
 Re-scaling the density matrix to get the right number of electrons
                  # Electrons              Trace(P)               Scaling factor
                          503               503.000                        1.000


 SCF WAVEFUNCTION OPTIMIZATION

  Step     Update method      Time    Convergence         Total energy    Change
  ------------------------------------------------------------------------------
     1 NoMix/Diag. 0.30E+00    4.6     0.92201485     -1334.2488332813 -1.33E+03
     2 Broy./Diag. 0.30E+00    1.4     1.46095235     -1405.2303170474 -7.10E+01
     3 Broy./Diag. 0.30E+00    1.4     0.54712725     -1331.4010718364  7.38E+01
     4 Broy./Diag. 0.30E+00    1.4     0.22237738     -1337.8174700240 -6.42E+00
     5 Broy./Diag. 0.30E+00    1.3     0.08345005     -1336.0584029426  1.76E+00
     6 Broy./Diag. 0.30E+00    1.3     0.05218308     -1336.9305290748 -8.72E-01
     7 Broy./Diag. 0.30E+00    1.3     0.03323525     -1336.5110981226  4.19E-01
     8 Broy./Diag. 0.30E+00    1.3     0.02326864     -1335.2908441988  1.22E+00
     9 Broy./Diag. 0.30E+00    1.3     0.00526368     -1335.7788672020 -4.88E-01
    10 Broy./Diag. 0.30E+00    1.3     0.00560380     -1335.7334114043  4.55E-02
    11 Broy./Diag. 0.30E+00    1.3     0.00361466     -1335.7376180989 -4.21E-03
    12 Broy./Diag. 0.30E+00    1.3     0.00687925     -1335.6495738419  8.80E-02
    13 Broy./Diag. 0.30E+00    1.3     0.00218089     -1335.6330232742  1.66E-02
    14 Broy./Diag. 0.30E+00    1.3     0.00036405     -1335.6399792787 -6.96E-03
    15 Broy./Diag. 0.30E+00    1.3     0.00011920     -1335.6343202493  5.66E-03
    16 Broy./Diag. 0.30E+00    1.3     0.00005544     -1335.6362365402 -1.92E-03
    17 Broy./Diag. 0.30E+00    1.4     0.00003080     -1335.6351123557  1.12E-03
    18 Broy./Diag. 0.30E+00    1.3     0.00003267     -1335.6345883692  5.24E-04
    19 Broy./Diag. 0.30E+00    1.3     0.00001572     -1335.6342151380  3.73E-04
    20 Broy./Diag. 0.30E+00    1.3     0.00001963     -1335.6343059817 -9.08E-05
    21 Broy./Diag. 0.30E+00    1.3     0.00001559     -1335.6344267723 -1.21E-04
    22 Broy./Diag. 0.30E+00    1.3     0.00001314     -1335.6344225133  4.26E-06
    23 Broy./Diag. 0.30E+00    1.3     0.00000663     -1335.6344014189  2.11E-05
    24 Broy./Diag. 0.30E+00    1.3     0.00000675     -1335.6343754483  2.60E-05
    25 Broy./Diag. 0.30E+00    1.3     0.00000810     -1335.6343781370 -2.69E-06
    26 Broy./Diag. 0.30E+00    1.3     0.00000296     -1335.6343318244  4.63E-05
    27 Broy./Diag. 0.30E+00    1.3     0.00000158     -1335.6343341673 -2.34E-06
    28 Broy./Diag. 0.30E+00    1.3     0.00000087     -1335.6343293546  4.81E-06
    29 Broy./Diag. 0.30E+00    1.3     0.00000030     -1335.6343295056 -1.51E-07
    30 Broy./Diag. 0.30E+00    1.3     0.00000007     -1335.6343267845  2.72E-06
    31 Broy./Diag. 0.30E+00    1.3     0.00000007     -1335.6343252825  1.50E-06
    32 Broy./Diag. 0.30E+00    1.3     0.00000005     -1335.6343252403  4.22E-08
    33 Broy./Diag. 0.30E+00    1.3     0.00000003     -1335.6343253649 -1.25E-07
    34 Broy./Diag. 0.30E+00    1.4     0.00000007     -1335.6343253856 -2.07E-08
    35 Broy./Diag. 0.30E+00    1.4     0.00000003     -1335.6343253149  7.07E-08
    36 Broy./Diag. 0.30E+00    1.3     0.00000003     -1335.6343255744 -2.60E-07
    37 Broy./Diag. 0.30E+00    1.3     0.00000002     -1335.6343255081  6.63E-08
    38 Broy./Diag. 0.30E+00    1.3     0.00000001     -1335.6343255355 -2.75E-08
    39 Broy./Diag. 0.30E+00    1.3     7.5335E-09     -1335.6343254857  4.99E-08

  *** SCF run converged in    39 steps ***


  Electronic density on regular grids:       -503.0000000798       -0.0000000798
  Core density on regular grids:              502.9999997691       -0.0000002309
  Total charge density on r-space grids:       -0.0000003108
  Total charge density g-space grids:          -0.0000003108

  Overlap energy of the core charge distribution:               0.00000038534983
  Self energy of the core charge distribution:              -2290.34857843184500
  Core Hamiltonian energy:                                    712.09660378441447
  Hartree energy:                                             460.05035133989009
  Exchange-correlation energy:                               -217.42970349454146
  Electronic entropic energy:                                  -0.00299906892450
  Fermi energy:                                                -0.05526085270073

  Total energy:                                             -1335.63432548565879

 The electron density is written in cube file format to the file:

 dft_wfn-ELECTRON_DENSITY-1_0.cube

 !-----------------------------------------------------------------------------!
                     Mulliken Population Analysis

 #  Atom  Element  Kind  Atomic population                           Net charge
       1     Au       1          0.994991                              0.005009
       2     Au       1          1.014542                             -0.014542
       3     Au       1          1.009050                             -0.009050
       4     Au       1          0.910500                              0.089500
       5     Au       1          0.994906                              0.005094
       6     Au       1          0.997268                              0.002732
       7     Au       1          1.009170                             -0.009170
       8     Au       1          0.910431                              0.089569
       9     Au       1          0.992217                              0.007783
      10     Au       1          1.014512                             -0.014512
      11     Au       1          1.014005                             -0.014005
      12     Au       1          0.910398                              0.089602
      13     Au       1          0.996135                              0.003865
      14     Au       1          0.997325                              0.002675
      15     Au       1          1.023588                             -0.023588
      16     Au       1          0.910325                              0.089675
      17     Au       1          0.996261                              0.003739
      18     Au       1          1.018747                             -0.018747
      19     Au       1          1.023516                             -0.023516
      20     Au       1          0.908495                              0.091505
      21     Au       1          0.995073                              0.004927
      22     Au       1          0.997035                              0.002965
      23     Au       1          1.009290                             -0.009290
      24     Au       1          0.910372                              0.089628
      25     Au       1          0.996031                              0.003969
      26     Au       1          1.014547                             -0.014547
      27     Au       1          1.023524                             -0.023524
      28     Au       1          0.910463                              0.089537
      29     Au       1          0.996146                              0.003854
      30     Au       1          0.997156                              0.002844
      31     Au       1          1.023458                             -0.023458
      32     Au       1          0.910302                              0.089698
      33     Au       1          0.995050                              0.004950
      34     Au       1          1.014502                             -0.014502
      35     Au       1          1.009161                             -0.009161
      36     Au       1          0.910347                              0.089653
      37     Au       2         11.102374                             -0.102374
      38     Au       2         11.055295                             -0.055295
      39     Au       2         11.055347                             -0.055347
      40     Au       2         11.102549                             -0.102549
      41     Au       2         11.055519                             -0.055519
      42     Au       2         11.055569                             -0.055569
      43     Au       2         11.142837                             -0.142837
      44     Au       2         11.102626                             -0.102626
      45     Au       2         11.102548                             -0.102548
      46     Au       2         11.002950                             -0.002950
      47     Au       2         10.954340                              0.045660
      48     Au       2         11.002982                             -0.002982
      49     Au       2         10.954344                              0.045656
      50     Au       2         10.823895                              0.176105
      51     Au       2         10.954586                              0.045414
      52     Au       2         11.002998                             -0.002998
      53     Au       2         10.954344                              0.045656
      54     Au       2         11.002925                             -0.002925
      55     Au       2         11.004327                             -0.004327
      56     Au       2         11.003757                             -0.003757
      57     Au       2         11.004116                             -0.004116
      58     Au       2         11.003587                             -0.003587
      59     Au       2         11.159173                             -0.159173
      60     Au       2         11.093924                             -0.093924
      61     H        3          0.950680                              0.049320
      62     H        3          0.952119                              0.047881
      63     Au       2         11.094028                             -0.094028
      64     Au       2         11.095191                             -0.095191
      65     Au       2         10.999654                              0.000346
      66     Au       2         10.999805                              0.000195
      67     Au       2         11.000324                             -0.000324
      68     Au       2         11.000450                             -0.000450
      69     Au       2         11.084405                             -0.084405
      70     Au       2         11.057915                             -0.057915
      71     Au       2         11.084416                             -0.084416
      72     Au       2         11.058175                             -0.058175
      73     Au       2         10.963985                              0.036015
      74     Au       2         11.058061                             -0.058061
      75     Au       2         11.084483                             -0.084483
      76     Au       2         11.057892                             -0.057892
      77     Au       2         11.084358                             -0.084358
      78     Au       1          0.910367                              0.089633
      79     Au       1          1.013062                             -0.013062
      80     Au       1          1.003480                             -0.003480
      81     Au       1          0.996232                              0.003768
      82     Au       1          0.910292                              0.089708
      83     Au       1          1.014578                             -0.014578
      84     Au       1          1.003742                             -0.003742
      85     Au       1          0.989873                              0.010127
      86     Au       1          0.917280                              0.082720
      87     Au       1          1.012986                             -0.012986
      88     Au       1          1.015801                             -0.015801
      89     Au       1          0.996067                              0.003933
      90     Au       1          0.902671                              0.097329
      91     Au       1          1.014472                             -0.014472
      92     Au       1          1.011141                             -0.011141
      93     Au       1          0.989845                              0.010155
      94     Au       1          0.902804                              0.097196
      95     Au       1          1.024580                             -0.024580
      96     Au       1          1.011143                             -0.011143
      97     Au       1          0.994787                              0.005213
      98     Au       1          0.910420                              0.089580
      99     Au       1          1.014444                             -0.014444
     100     Au       1          1.003893                             -0.003893
     101     Au       1          0.989797                              0.010203
     102     Au       1          0.902766                              0.097234
     103     Au       1          1.013104                             -0.013104
     104     Au       1          1.011161                             -0.011161
     105     Au       1          0.996193                              0.003807
     106     Au       1          0.902878                              0.097122
     107     Au       1          1.014364                             -0.014364
     108     Au       1          1.011161                             -0.011161
     109     Au       1          0.989896                              0.010104
     110     Au       1          0.910342                              0.089658
     111     Au       1          1.012998                             -0.012998
     112     Au       1          1.003644                             -0.003644
     113     Au       1          0.996040                              0.003960
 # Total charge                            503.000000                  0.000000

 !-----------------------------------------------------------------------------!

 !-----------------------------------------------------------------------------!
                           Hirshfeld Charges

  #Atom  Element  Kind  Ref Charge     Population                    Net charge
      1       Au     1       1.000          0.997                         0.003
      2       Au     1       1.000          1.006                        -0.006
      3       Au     1       1.000          1.010                        -0.010
      4       Au     1       1.000          1.032                        -0.032
      5       Au     1       1.000          0.997                         0.003
      6       Au     1       1.000          0.997                         0.003
      7       Au     1       1.000          1.010                        -0.010
      8       Au     1       1.000          1.031                        -0.031
      9       Au     1       1.000          0.999                         0.001
     10       Au     1       1.000          1.006                        -0.006
     11       Au     1       1.000          1.012                        -0.012
     12       Au     1       1.000          1.032                        -0.032
     13       Au     1       1.000          0.998                         0.002
     14       Au     1       1.000          0.997                         0.003
     15       Au     1       1.000          1.017                        -0.017
     16       Au     1       1.000          1.031                        -0.031
     17       Au     1       1.000          0.998                         0.002
     18       Au     1       1.000          1.008                        -0.008
     19       Au     1       1.000          1.017                        -0.017
     20       Au     1       1.000          1.029                        -0.029
     21       Au     1       1.000          0.997                         0.003
     22       Au     1       1.000          0.996                         0.004
     23       Au     1       1.000          1.010                        -0.010
     24       Au     1       1.000          1.031                        -0.031
     25       Au     1       1.000          0.998                         0.002
     26       Au     1       1.000          1.006                        -0.006
     27       Au     1       1.000          1.017                        -0.017
     28       Au     1       1.000          1.032                        -0.032
     29       Au     1       1.000          0.998                         0.002
     30       Au     1       1.000          0.997                         0.003
     31       Au     1       1.000          1.017                        -0.017
     32       Au     1       1.000          1.031                        -0.031
     33       Au     1       1.000          0.997                         0.003
     34       Au     1       1.000          1.006                        -0.006
     35       Au     1       1.000          1.010                        -0.010
     36       Au     1       1.000          1.032                        -0.032
     37       Au     2      11.000         10.956                         0.044
     38       Au     2      11.000         10.955                         0.045
     39       Au     2      11.000         10.955                         0.045
     40       Au     2      11.000         10.956                         0.044
     41       Au     2      11.000         10.955                         0.045
     42       Au     2      11.000         10.955                         0.045
     43       Au     2      11.000         10.959                         0.041
     44       Au     2      11.000         10.956                         0.044
     45       Au     2      11.000         10.956                         0.044
     46       Au     2      11.000         11.012                        -0.012
     47       Au     2      11.000         10.992                         0.008
     48       Au     2      11.000         11.012                        -0.012
     49       Au     2      11.000         10.992                         0.008
     50       Au     2      11.000         10.963                         0.037
     51       Au     2      11.000         10.992                         0.008
     52       Au     2      11.000         11.012                        -0.012
     53       Au     2      11.000         10.992                         0.008
     54       Au     2      11.000         11.012                        -0.012
     55       Au     2      11.000         10.983                         0.017
     56       Au     2      11.000         10.983                         0.017
     57       Au     2      11.000         10.984                         0.016
     58       Au     2      11.000         10.983                         0.017
     59       Au     2      11.000         11.033                        -0.033
     60       Au     2      11.000         11.022                        -0.022
     61       H      3       1.000          1.040                        -0.040
     62       H      3       1.000          1.040                        -0.040
     63       Au     2      11.000         11.019                        -0.019
     64       Au     2      11.000         11.025                        -0.025
     65       Au     2      11.000         10.980                         0.020
     66       Au     2      11.000         10.980                         0.020
     67       Au     2      11.000         10.980                         0.020
     68       Au     2      11.000         10.980                         0.020
     69       Au     2      11.000         10.975                         0.025
     70       Au     2      11.000         10.959                         0.041
     71       Au     2      11.000         10.975                         0.025
     72       Au     2      11.000         10.959                         0.041
     73       Au     2      11.000         10.935                         0.065
     74       Au     2      11.000         10.959                         0.041
     75       Au     2      11.000         10.975                         0.025
     76       Au     2      11.000         10.959                         0.041
     77       Au     2      11.000         10.975                         0.025
     78       Au     1       1.000          1.026                        -0.026
     79       Au     1       1.000          1.010                        -0.010
     80       Au     1       1.000          1.000                         0.000
     81       Au     1       1.000          0.998                         0.002
     82       Au     1       1.000          1.026                        -0.026
     83       Au     1       1.000          1.010                        -0.010
     84       Au     1       1.000          1.000                        -0.000
     85       Au     1       1.000          0.996                         0.004
     86       Au     1       1.000          1.031                        -0.031
     87       Au     1       1.000          1.010                        -0.010
     88       Au     1       1.000          1.005                        -0.005
     89       Au     1       1.000          0.998                         0.002
     90       Au     1       1.000          1.024                        -0.024
     91       Au     1       1.000          1.010                        -0.010
     92       Au     1       1.000          1.003                        -0.003
     93       Au     1       1.000          0.996                         0.004
     94       Au     1       1.000          1.024                        -0.024
     95       Au     1       1.000          1.017                        -0.017
     96       Au     1       1.000          1.003                        -0.003
     97       Au     1       1.000          0.998                         0.002
     98       Au     1       1.000          1.026                        -0.026
     99       Au     1       1.000          1.010                        -0.010
    100       Au     1       1.000          1.000                        -0.000
    101       Au     1       1.000          0.996                         0.004
    102       Au     1       1.000          1.024                        -0.024
    103       Au     1       1.000          1.010                        -0.010
    104       Au     1       1.000          1.004                        -0.004
    105       Au     1       1.000          0.998                         0.002
    106       Au     1       1.000          1.024                        -0.024
    107       Au     1       1.000          1.010                        -0.010
    108       Au     1       1.000          1.004                        -0.004
    109       Au     1       1.000          0.996                         0.004
    110       Au     1       1.000          1.026                        -0.026
    111       Au     1       1.000          1.010                        -0.010
    112       Au     1       1.000          1.000                         0.000
    113       Au     1       1.000          0.998                         0.002

  Total Charge                                                           -0.000
 !-----------------------------------------------------------------------------!

 ENERGY| Total FORCE_EVAL ( QS ) energy [a.u.]:            -1335.634325485658792

 -------------------------------------------------------------------------------
 -                                                                             -
 -                                DBCSR STATISTICS                             -
 -                                                                             -
 -------------------------------------------------------------------------------
 COUNTER                                    TOTAL       BLAS       SMM       ACC
 flops inhomo. stacks                           0       0.0%      0.0%      0.0%
 flops total                         0.000000E+00       0.0%      0.0%      0.0%
 flops max/rank                      0.000000E+00       0.0%      0.0%      0.0%
 matmuls inhomo. stacks                         0       0.0%      0.0%      0.0%
 matmuls total                                  0       0.0%      0.0%      0.0%
 number of processed stacks                     0       0.0%      0.0%      0.0%
 average stack size                                     0.0       0.0       0.0
 marketing flops                     0.000000E+00
 -------------------------------------------------------------------------------
 -                                                                             -
 -                      DBCSR MESSAGE PASSING PERFORMANCE                      -
 -                                                                             -
 -------------------------------------------------------------------------------
 ROUTINE             CALLS      AVE VOLUME [Bytes]
 MP_Bcast                1                     12.
 MP_Allreduce         2750                      8.
 MP_Alltoall         29622                 103238.
 -------------------------------------------------------------------------------

 -------------------------------------------------------------------------------
 -                                                                             -
 -                                DBM STATISTICS                               -
 -                                                                             -
 -------------------------------------------------------------------------------
    M  x    N  x    K                                          COUNT     PERCENT
 -------------------------------------------------------------------------------

 -------------------------------------------------------------------------------
 -                                                                             -
 -                                GRID STATISTICS                              -
 -                                                                             -
 -------------------------------------------------------------------------------
 LP    KERNEL             BACKEND                              COUNT     PERCENT
 0     collocate ortho    REF                                3021120      31.31%
 0     integrate ortho    REF                                2945592      30.53%
 2     collocate ortho    REF                                1057000      10.95%
 2     integrate ortho    REF                                1030575      10.68%
 4     collocate ortho    REF                                 596440       6.18%
 4     integrate ortho    REF                                 581529       6.03%
 0     collocate general  REF                                 195264       2.02%
 0     integrate general  REF                                 173568       1.80%
 3     collocate ortho    REF                                  22880       0.24%
 3     integrate ortho    REF                                  22308       0.23%
 1     collocate ortho    REF                                   1200       0.01%
 1     integrate ortho    REF                                   1170       0.01%
 -------------------------------------------------------------------------------

 MEMORY| Estimated peak process memory [MiB]                                 298

 -------------------------------------------------------------------------------
 ----                             MULTIGRID INFO                            ----
 -------------------------------------------------------------------------------
 count for grid        1:         295673          cutoff [a.u.]          300.00
 count for grid        2:         334542          cutoff [a.u.]          100.00
 count for grid        3:         277128          cutoff [a.u.]           33.33
 count for grid        4:         178397          cutoff [a.u.]           11.11
 total gridlevel count  :        1085740

 -------------------------------------------------------------------------------
 -                                                                             -
 -                         MESSAGE PASSING PERFORMANCE                         -
 -                                                                             -
 -------------------------------------------------------------------------------

 ROUTINE             CALLS      AVE VOLUME [Bytes]
 MP_Group                5
 MP_Bcast            12798                  52125.
 MP_Allreduce         2208                   1779.
 MP_Sync               478
 MP_Alltoall          1273              209262566.
 MP_ISendRecv        30178                  11856.
 MP_Wait             49226
 MP_ISend            27383                  36146.
 MP_IRecv            27487                  36033.
 MP_Recv              1540                  65816.
 MP_Write_All            2                 667392.
 -------------------------------------------------------------------------------


 -------------------------------------------------------------------------------
 -                                                                             -
 -                           R E F E R E N C E S                               -
 -                                                                             -
 -------------------------------------------------------------------------------
 
 CP2K version 2022.1 (Development Version), the CP2K developers group (2022).
 CP2K is freely available from https://www.cp2k.org/ .

 Kuehne,Thomas D.; Iannuzzi,Marcella; Del Ben,Mauro;
 Rybkin,Vladimir V.; Seewald,Patrick; Stein,Frederick; Laino,Teodoro;
 Khaliullin,Rustam Z.; Schuett,Ole; Schiffmann,Florian; Golze,Dorothea;
 Wilhelm,Jan; Chulkov,Sergey; Bani-Hashemian,Mohammad Hossein;
 Weber,Valery; Borstnik,Urban; Taillefumier,Mathieu;
 Jakobovits,Alice Shoshana; Lazzaro,Alfio; Pabst,Hans; Mueller,Tiziano;
 Schade,Robert; Guidon,Manuel; Andermatt,Samuel; Holmberg,Nico;
 Schenter,Gregory K.; Hehn,Anna; Bussy,Augustin; Belleflamme,Fabian;
 Tabacchi,Gloria; Gloess,Andreas; Lass,Michael; Bethune,Iain;
 Mundy,Christopher J.; Plessl,Christian; Watkins,Matt;
 VandeVondele,Joost; Krack,Matthias; Hutter,Juerg. 
 The Journal of Chemical Physics, 152 (19), (2020). 
 CP2K: An electronic structure and molecular dynamics software package -
 Quickstep: Efficient and accurate electronic structure calculations.
 https://doi.org/10.1063/5.0007045

 Schuett, Ole; Messmer, Peter; Hutter, Juerg; VandeVondele, Joost. 
 Electronic Structure Calculations on Graphics Processing Units, John
 Wiley & Sons, Ltd, 173-190 (2016). 
 GPU-Accelerated Sparse Matrix-Matrix Multiplication for
 Linear Scaling Density Functional Theory.
 https://doi.org/10.1002/9781118670712.ch8

 Borstnik, U; VandeVondele, J; Weber, V; Hutter, J. 
 PARALLEL COMPUTING, 40 (5-6), 47-58 (2014). 
 Sparse matrix multiplication: The distributed block-compressed sparse
 row library.
 https://doi.org/10.1016/j.parco.2014.03.012

 Hutter, J; Iannuzzi, M; Schiffmann, F; VandeVondele, J. 
 WIREs Comput Mol Sci., 4 (1), 15-25 (2014). 
 CP2K: atomistic simulations of condensed matter systems.
 https://doi.org/10.1002/wcms.1159

 Marek, A; Blum, V; Johanni, R; Havu, V; Lang, B; Auckenthaler, T;
 Heinecke, A; Bungartz, H; Lederer, H. 
 Journal of Physics: Condensed Matter, 26 (21), (2014). 
 The ELPA library: scalable parallel eigenvalue solutions for
 electronic structure
 theory and computational science.
 https://doi.org/10.1088/0953-8984/26/21/213201

 VandeVondele, J; Hutter, J. 
 JOURNAL OF CHEMICAL PHYSICS, 127 (11), 114105 (2007). 
 Gaussian basis sets for accurate calculations on molecular systems in
 gas and condensed phases.
 https://doi.org/10.1063/1.2770708

 Krack, M. 
 THEORETICAL CHEMISTRY ACCOUNTS, 114 (1-3), 145-152 (2005). 
 Pseudopotentials for H to Kr optimized for gradient-corrected
 exchange-correlation functionals.
 https://doi.org/10.1007/s00214-005-0655-y

 VandeVondele, J; Krack, M; Mohamed, F; Parrinello, M; Chassaing, T;
 Hutter, J. COMPUTER PHYSICS COMMUNICATIONS, 167 (2), 103-128 (2005). 
 QUICKSTEP: Fast and accurate density functional calculations using a
 mixed Gaussian and plane waves approach.
 https://doi.org/10.1016/j.cpc.2004.12.014

 Frigo, M; Johnson, SG. 
 PROCEEDINGS OF THE IEEE, 93 (2), 216-231 (2005). 
 The design and implementation of FFTW3.
 https://doi.org/10.1109/JPROC.2004.840301

 Hartwigsen, C; Goedecker, S; Hutter, J. 
 PHYSICAL REVIEW B, 58 (7), 3641-3662 (1998). 
 Relativistic separable dual-space Gaussian pseudopotentials from H to Rn.
 https://doi.org/10.1103/PhysRevB.58.3641

 Lippert, G; Hutter, J; Parrinello, M. 
 MOLECULAR PHYSICS, 92 (3), 477-487 (1997). 
 A hybrid Gaussian and plane wave density functional scheme.
 https://doi.org/10.1080/002689797170220

 Perdew, JP; Burke, K; Ernzerhof, M. 
 PHYSICAL REVIEW LETTERS, 77 (18), 3865-3868 (1996). 
 Generalized gradient approximation made simple.
 https://doi.org/10.1103/PhysRevLett.77.3865

 Goedecker, S; Teter, M; Hutter, J. 
 PHYSICAL REVIEW B, 54 (3), 1703-1710 (1996). 
 Separable dual-space Gaussian pseudopotentials.
 https://doi.org/10.1103/PhysRevB.54.1703


 -------------------------------------------------------------------------------
 -                                                                             -
 -                                T I M I N G                                  -
 -                                                                             -
 -------------------------------------------------------------------------------
 SUBROUTINE                       CALLS  ASD         SELF TIME        TOTAL TIME
                                MAXIMUM       AVERAGE  MAXIMUM  AVERAGE  MAXIMUM
 CP2K                                 1  1.0    0.269    0.332   63.802   63.804
 qs_energies                          1  2.0    0.002    0.004   63.070   63.073
 scf_env_do_scf                       1  3.0    0.000    0.001   55.885   55.888
 scf_env_do_scf_inner_loop           39  4.0    0.007    0.009   55.885   55.888
 qs_scf_new_mos_kp                   39  5.0    0.001    0.001   47.410   47.416
 do_general_diag_kp                  39  6.0    0.015    0.020   47.409   47.416
 cp_cfm_geeig                       351  7.0    0.005    0.007   40.420   40.481
 cp_cfm_heevd                       351  8.0   32.812   33.776   32.812   33.776
 rs_pw_transfer                     319  9.5    0.005    0.007    6.403    7.043
 qs_rho_update_rho_low               40  5.0    0.000    0.001    4.922    4.925
 calculate_rho_elec                  40  6.0    0.014    0.015    4.922    4.925
 mp_waitany                       10650 11.4    1.948    4.786    1.948    4.786
 qs_ks_update_qs_env                 39  5.0    0.001    0.001    4.562    4.565
 rebuild_ks_matrix                   39  6.0    0.001    0.001    4.501    4.504
 qs_ks_build_kohn_sham_matrix        39  7.0    0.010    0.012    4.500    4.503
 cp_cfm_triangular_multiply        1053  8.0    3.598    4.017    3.598    4.017
 density_rs2pw                       40  7.0    0.002    0.003    3.704    3.881
 rs_pw_transfer_RS2PW_300            42  8.9    0.291    0.394    3.200    3.858
 qs_energies_init_hamiltonians        1  3.0    0.002    0.004    3.835    3.837
 qs_env_update_s_mstruct              1  4.0    0.000    0.000    3.682    3.788
 mp_isend_dv                      11098 10.7    2.495    3.715    2.495    3.715
 kpoint_density_matrices             39  7.0    0.020    0.022    3.411    3.499
 pw_transfer                        785  9.9    0.076    0.095    3.436    3.494
 cp_gemm                           1404  8.0    0.002    0.002    3.390    3.478
 cp_gemm_fm_gemm                   1404  9.0    0.002    0.002    3.388    3.476
 cp_fm_gemm                        1404 10.0    3.386    3.475    3.386    3.475
 fft_wrap_pw1pw2                    707 11.0    0.008    0.009    3.342    3.401
 calculate_rho_core                   1  5.0    0.004    0.005    3.099    3.132
 cp_cfm_cholesky_decompose          351  8.0    1.898    2.785    1.898    2.785
 fft_wrap_pw1pw2_300                470 12.3    0.131    0.142    2.529    2.593
 cp_cfm_to_cfm_columns              351  8.0    1.288    2.535    1.288    2.535
 fft3d_pb                           470 13.3    0.531    0.579    2.155    2.220
 sum_up_and_integrate                39  8.0    0.008    0.011    2.151    2.153
 integrate_v_rspace                  39  9.0    0.001    0.002    2.142    2.145
 copy_dbcsr_to_fm                  1474  7.0    0.015    0.015    1.967    2.115
 dbcsr_complete_redistribute       2176  8.3    0.122    0.200    1.988    2.113
 init_scf_run                         1  3.0    0.000    0.001    2.046    2.048
 scf_env_initial_rho_setup            1  4.0    0.001    0.002    2.046    2.048
 qs_vxc_create                       39  8.0    0.001    0.002    2.009    2.021
 xc_vxc_pw_create                    39  9.0    0.020    0.023    2.008    2.019
 mp_sum_d                          3469  7.9    0.695    1.876    0.695    1.876
 potential_pw2rs                     39 10.0    0.002    0.003    1.733    1.738
 rs_pw_transfer_RS2PW_100            40  9.0    0.042    0.058    1.382    1.594
 mp_alltoall_z22v                  1177 15.2    1.421    1.538    1.421    1.538
 dbcsr_desymmetrize_deep           2878  7.5    0.070    0.114    1.090    1.532
 mp_alltoall_i22                   5054  8.8    0.916    1.441    0.916    1.441
 grid_collocate_task_list            40  7.0    1.173    1.383    1.173    1.383
 xc_pw_derive                       234 11.0    0.002    0.002    1.315    1.375
 mp_waitall_1                     42148 11.0    0.590    1.372    0.590    1.372
 mp_alltoall_d11v                 15241  9.4    1.173    1.354    1.173    1.354
 scf_post_calculation_gpw             1  3.0    0.001    0.002    1.297    1.298
 write_available_results              1  4.0    0.000    0.001    1.295    1.296
 write_mo_free_results                1  5.0    0.094    0.096    1.295    1.296
 -------------------------------------------------------------------------------

 The number of warnings for this run is : 1
 
 -------------------------------------------------------------------------------
  **** **** ******  **  PROGRAM ENDED AT                 2023-11-28 10:25:26.810
 ***** ** ***  *** **   PROGRAM RAN ON                                 nid001129
 **    ****   ******    PROGRAM RAN BY                                    cahart
 ***** **    ** ** **   PROGRAM PROCESS ID                                161408
  **** **  *******  **  PROGRAM STOPPED IN /mnt/lustre/a2fs-work2/work/e05/e05/c
                                           ahart/postdoc/transport/cp2k-smeagol-
                                           examples/au-h2/cp2k-smeagol/transmiss
                                           ion/kpoints-3-3-20_omp-2_ParallelOver
                                           KNum-3_contour-single_6s
