#     Step Nr.          Time[fs]        Kin.[a.u.]          Temp[K]            Pot.[a.u.]        Cons Qty[a.u.]        UsedTime[s]
         0            0.000000         0.733909456       300.000000000         6.327890605         7.061800061         0.000000000
     10000         5000.000000         1.087767768       444.646580960        -2.422130507         7.028537704         0.006025076
     20000        10000.000000         0.768447285       314.118020434        -2.928360733         7.025324174         0.006103992
     30000        15000.000000         0.758549094       310.071939144        -2.974779178         7.025261485         0.005326033
     40000        20000.000000         0.718742300       293.800125185        -2.948208193         7.024783356         0.005769014
     50000        25000.000000         0.703989513       287.769631829        -2.934480754         7.025316636         0.005199909
     60000        30000.000000         0.751666403       307.258503195        -2.959730784         7.024564946         0.005415916
     70000        35000.000000         0.700623617       286.393755254        -2.967418951         7.024791327         0.006265879
     80000        40000.000000         0.759571169       310.489732502        -2.949920463         7.024927015         0.011193037
     90000        45000.000000         0.747914869       305.724989722        -2.948481371         7.024848494         0.011635065
    100000        50000.000000         0.716514837       292.889605569        -2.924886562         7.025182816         0.011965036
    110000        55000.000000         0.731139294       298.867641619        -3.044148045         7.024838349         0.006798029
    120000        60000.000000         0.731479156       299.006566883        -3.054756296         7.024755138         0.005350113
    130000        65000.000000         0.751925961       307.364602696        -3.002135103         7.025063813         0.006070137
    140000        70000.000000         0.716335785       292.816414621        -2.996785330         7.025053930         0.005874157
    150000        75000.000000         0.717044376       293.106065258        -2.958381209         7.025122074         0.005987883
    160000        80000.000000         0.725807313       296.688088898        -2.984401552         7.024739565         0.005695105
    170000        85000.000000         0.694607607       283.934592246        -3.012881973         7.024380984         0.006917953
    180000        90000.000000         0.688851755       281.581774136        -2.990045030         7.024822642         0.005507946
    190000        95000.000000         0.722531845       295.349176568        -2.926786086         7.025614314         0.005254030
    200000       100000.000000         0.730934978       298.784123194        -2.980555796         7.025238207         0.006229877
    210000       105000.000000         0.756154691       309.093179565        -2.963197858         7.025389911         0.006811142
    220000       110000.000000         0.717777098       293.405579993        -2.968987920         7.025751584         0.006290913
    230000       115000.000000         0.726616842       297.019000041        -2.927838565         7.026040661         0.006151915
    240000       120000.000000         0.688681339       281.512113072        -3.010743776         7.025636595         0.005807877
    250000       125000.000000         0.707636513       289.260415396        -3.031961016         7.025924468         0.005219936
    260000       130000.000000         0.733782581       299.948137321        -2.997496302         7.025852374         0.006531954
    270000       135000.000001         0.774710141       316.678086727        -2.991569654         7.025674399         0.006147861
    280000       140000.000001         0.712819177       291.378931506        -2.993380304         7.026077369         0.006714821
    290000       145000.000001         0.755316042       308.750365425        -3.024337281         7.026916714         0.005004883
    300000       150000.000001         0.766841879       313.461779162        -2.958284643         7.026912933         0.007603168
    310000       155000.000001         0.764969274       312.696314835        -2.974580090         7.026161486         0.007061958
    320000       160000.000001         0.680970394       278.360111665        -3.019884879         7.026330393         0.008002043
    330000       165000.000001         0.690822185       282.387226266        -2.984222723         7.025683733         0.006418943
    340000       170000.000001         0.706237762       288.688647897        -2.963921620         7.026025469         0.007879019
    350000       175000.000001         0.763649484       312.156824656        -2.990270828         7.025944190         0.009060144
    360000       180000.000002         0.722518518       295.343729052        -3.050530600         7.025787061         0.007328033
    370000       185000.000002         0.713771725       291.768304573        -2.981143555         7.026460791         0.010798931
    380000       190000.000002         0.718077706       293.528459365        -2.980898080         7.026804561         0.007452011
    390000       195000.000002         0.755873913       308.978406038        -2.979662429         7.026711347         0.010267019
    400000       200000.000002         0.733629059       299.885382369        -3.030190694         7.026869493         0.008907080
    410000       205000.000002         0.733678835       299.905729171        -3.029453057         7.027254100         0.008702040
    420000       210000.000002         0.678051247       277.166852891        -2.946227476         7.028116106         0.006603956
    430000       215000.000002         0.756475720       309.224406607        -2.965950937         7.027832093         0.009609938
    440000       220000.000002         0.747222885       305.442127296        -2.938381022         7.028219546         0.013552904
    450000       225000.000001         0.700439679       286.318567078        -2.988815100         7.028133965         0.008290052
    460000       230000.000001         0.685680676       280.285532891        -3.010585066         7.028204632         0.007958174
    470000       235000.000001         0.737751622       301.570561461        -3.018450772         7.028141395         0.007578135
    480000       240000.000001         0.730863141       298.754758539        -2.980646371         7.028639825         0.014466047
    490000       245000.000001         0.719798282       294.231778806        -3.037042156         7.028225750         0.007898092
    500000       250000.000001         0.711810286       290.966527427        -2.957987365         7.028627212         0.008368015
    510000       255000.000001         0.770756494       315.061955284        -3.012789718         7.027330538         0.008157015
    520000       260000.000001         0.754309131       308.338770416        -2.963254603         7.027175415         0.006599903
    530000       265000.000001         0.726984722       297.169378326        -2.978910344         7.026901074         0.006249905
    540000       270000.000000         0.702083170       286.990376557        -3.018660509         7.026310682         0.005707979
    550000       275000.000000         0.726166960       296.835101724        -3.022037161         7.026503505         0.007240057
    560000       280000.000000         0.692846792       283.214824236        -3.002948296         7.025850091         0.005339146
    570000       285000.000000         0.736141854       300.912536717        -3.016307711         7.026266291         0.008948088
    580000       290000.000000         0.743073778       303.746097991        -2.936650468         7.026685548         0.007659912
    590000       295000.000000         0.762966047       311.877456249        -2.991414685         7.026682179         0.009890079
    600000       300000.000000         0.723480663       295.737024562        -2.999045913         7.026391174         0.008689165
    610000       305000.000000         0.741712710       303.189734412        -2.974252695         7.027148521         0.007801056
    620000       309999.999999         0.750282273       306.692712744        -2.991883924         7.026892271         0.006671906
    630000       314999.999999         0.712212877       291.131094421        -2.963018506         7.027111468         0.007252932
    640000       319999.999999         0.727939649       297.559723459        -2.981401837         7.027350447         0.007251978
    650000       324999.999999         0.760335817       310.802297657        -2.969740593         7.027326480         0.006317854
    660000       329999.999999         0.758427847       310.022377351        -2.998597950         7.027092687         0.006983995
    670000       334999.999999         0.775224730       316.888435274        -3.004425918         7.026592646         0.009083033
    680000       339999.999999         0.742087566       303.342964253        -2.939526953         7.027217128         0.009334087
    690000       344999.999999         0.735107397       300.489682327        -2.958578188         7.027119058         0.010627985
    700000       349999.999998         0.682279713       278.895321895        -3.050171369         7.026055169         0.006994963
    710000       354999.999998         0.744505815       304.331471269        -3.048588050         7.026404924         0.007431030
    720000       359999.999998         0.754487856       308.411827825        -2.945188045         7.026846178         0.009207010
    730000       364999.999998         0.766339741       313.256520089        -2.912395722         7.027003663         0.010359049
    740000       369999.999998         0.725772777       296.673971507        -2.954610404         7.026135195         0.006253004
    750000       374999.999998         0.747268897       305.460935764        -2.959995965         7.025943940         0.007379055
    760000       379999.999998         0.755604402       308.868238037        -2.960237678         7.026182609         0.008260965
    770000       384999.999998         0.706547636       288.815315238        -2.962656580         7.026615899         0.011209965
    780000       389999.999997         0.699077576       285.761780602        -3.017160864         7.026441490         0.016602039
    790000       394999.999997         0.721597602       294.967286401        -2.988565835         7.026162757         0.008219957
    800000       399999.999997         0.757009077       309.442426710        -2.973949578         7.026888152         0.010417938
    810000       404999.999997         0.738129558       301.725050172        -2.994362744         7.026356477         0.007905006
    820000       409999.999997         0.699883077       286.091045108        -2.937050218         7.027167925         0.007611036
    830000       414999.999998         0.716165123       292.746653262        -2.983820371         7.026947363         0.007548094
    840000       419999.999998         0.725343952       296.498680833        -2.988946203         7.026790326         0.006626129
    850000       424999.999998         0.760422863       310.837879464        -3.000683588         7.027395038         0.008155107
    860000       429999.999999         0.736346923       300.996363095        -2.954289791         7.027017699         0.008117914
    870000       434999.999999         0.655048012       267.763825661        -3.027502856         7.027086376         0.007606983
    880000       439999.999999         0.714030186       291.873955320        -2.952762050         7.027283695         0.009711027
    890000       445000.000000         0.753048237       307.823355189        -2.959093438         7.027666493         0.008246899
    900000       450000.000000         0.748073170       305.789698139        -2.972212586         7.027513992         0.008301020
    910000       455000.000000         0.718529523       293.713148536        -3.017696457         7.027606427         0.008826017
    920000       460000.000001         0.705495163       288.385096067        -2.999684377         7.027867573         0.007943869
    930000       465000.000001         0.761517221       311.285219851        -3.017692517         7.028259918         0.008064985
    940000       470000.000001         0.737809368       301.594166081        -3.050252054         7.027444891         0.008002043
    950000       475000.000002         0.740195230       302.569434428        -3.005389464         7.026575349         0.007589102
    960000       480000.000002         0.762677379       311.759457539        -2.977966085         7.027323072         0.010343075
    970000       485000.000002         0.678237814       277.243115754        -2.963349006         7.027673666         0.007242918
    980000       490000.000003         0.751634301       307.245380845        -3.010925289         7.027803055         0.007230043
    990000       495000.000003         0.739916590       302.455534975        -2.967145311         7.028166323         0.006681919
   1000000       500000.000003         0.677629426       276.994424986        -2.982657424         7.028529739         0.009596825
   1010000       505000.000004         0.689575065       281.877441177        -2.946310319         7.029080964         0.008727074
   1020000       510000.000004         0.718696983       293.781600837        -2.917241724         7.028921696         0.018599987
   1030000       515000.000004         0.762099104       311.523076069        -2.964941446         7.028670717         0.006649017
   1040000       520000.000005         0.704299524       287.896354859        -2.990858693         7.027894211         0.006307125
   1050000       525000.000005         0.742551677       303.532678717        -3.061803883         7.027096565         0.010824919
   1060000       530000.000005         0.728459834       297.772359340        -2.958065507         7.028151685         0.007097006
   1070000       535000.000006         0.755639798       308.882707145        -2.918771991         7.028752050         0.009146929
   1080000       540000.000006         0.720932572       294.695442311        -2.964184606         7.028692148         0.007186174
   1090000       545000.000006         0.754537658       308.432185602        -2.988539240         7.028597959         0.009282827
   1100000       550000.000007         0.750787346       306.899171289        -3.008672438         7.028879009         0.008616924
   1110000       555000.000007         0.785152794       320.946727449        -3.025925900         7.028785801         0.009505033
   1120000       560000.000007         0.751516860       307.197374492        -3.023273187         7.028835048         0.010492086
   1130000       565000.000008         0.742267351       303.416455008        -3.011116402         7.028952288         0.008085012
   1140000       570000.000008         0.741557720       303.126379007        -2.959165226         7.029716570         0.007333994
   1150000       575000.000008         0.765375584       312.862402061        -2.944364463         7.029585072         0.008527040
   1160000       580000.000009         0.795056035       324.994873226        -3.047001976         7.029474539         0.010227203
   1170000       585000.000009         0.797767281       326.103148537        -2.985354118         7.029757190         0.008029938
   1180000       590000.000009         0.782568775       319.890458678        -3.017644084         7.030545364         0.006788969
   1190000       595000.000010         0.725983445       296.760086317        -2.978308752         7.030376052         0.007569075
   1200000       600000.000010         0.722140040       295.189018454        -2.969162405         7.030379475         0.007529974
   1210000       605000.000010         0.726089786       296.803555393        -2.970123066         7.030643663         0.008165121
   1220000       610000.000011         0.764361400       312.447834427        -2.929048489         7.030767899         0.006890059
   1230000       615000.000011         0.780018209       318.847864336        -2.982499441         7.029928159         0.009083986
   1240000       620000.000011         0.730099993       298.442806599        -2.991091963         7.030024416         0.009911060
   1250000       625000.000012         0.749794640       306.493383220        -2.938805760         7.030234184         0.007262945
   1260000       630000.000012         0.755650215       308.886965113        -2.990997019         7.030153568         0.006824017
   1270000       635000.000012         0.690438926       282.230561649        -2.954505907         7.029745901         0.007940054
   1280000       640000.000013         0.744566981       304.356474306        -3.054856049         7.029600966         0.008430958
   1290000       645000.000013         0.723175548       295.612302862        -3.004482035         7.030026645         0.013857841
   1300000       650000.000013         0.725152180       296.420290339        -2.935406864         7.030375673         0.008477926
   1310000       655000.000014         0.737207896       301.348302707        -2.987642974         7.030598551         0.012150049
   1320000       660000.000014         0.762145249       311.541938591        -2.992919305         7.030499792         0.015672207
   1330000       665000.000014         0.745382016       304.689635634        -3.008295130         7.030992247         0.010149002
   1340000       670000.000015         0.719691025       294.187935244        -2.951087752         7.031094791         0.007421970
   1350000       675000.000015         0.771065833       315.188403676        -2.984917086         7.030780754         0.007139921
   1360000       680000.000015         0.768276072       314.048033667        -2.973991593         7.031129767         0.007534027
   1370000       685000.000016         0.748875267       306.117571163        -2.995317456         7.031570412         0.008103132
   1380000       690000.000016         0.705797950       288.508866185        -2.991639184         7.031322489         0.008928061
   1390000       695000.000016         0.730668767       298.675304547        -2.951667651         7.031750784         0.008269072
   1400000       700000.000017         0.675419380       276.091025293        -3.046539060         7.030298212         0.009947062
   1410000       705000.000017         0.712937073       291.427123746        -3.087614494         7.030572961         0.013225079
   1420000       710000.000017         0.756673084       309.305083235        -3.037076201         7.031486502         0.006229877
   1430000       715000.000018         0.753297007       307.925044912        -2.976118516         7.030832777         0.007786989
   1440000       720000.000018         0.679548973       277.779077841        -2.934955873         7.031270634         0.007869959
   1450000       725000.000018         0.705936408       288.565463517        -2.980693951         7.030778227         0.009240150
   1460000       730000.000019         0.748446600       305.942345115        -2.961408401         7.030912529         0.009532928
   1470000       735000.000019         0.690748167       282.356969998        -2.978442399         7.030691641         0.011249065
   1480000       740000.000019         0.741973159       303.296197941        -2.972426355         7.030411028         0.009743929
   1490000       745000.000020         0.725422148       296.530645193        -2.940081677         7.030251158         0.008175850
   1500000       750000.000020         0.731954566       299.200900016        -2.974886956         7.030296201         0.006744862
   1510000       755000.000020         0.707896684       289.366765107        -2.982162508         7.030371385         0.008794069
   1520000       760000.000021         0.750355859       306.722792548        -3.002621402         7.030045539         0.007253170
   1530000       765000.000021         0.739710188       302.371163967        -2.994931512         7.030934128         0.009206057
   1540000       770000.000021         0.701575989       286.783056085        -2.948430014         7.031300955         0.008599043
   1550000       775000.000021         0.740334734       302.626459435        -2.963860379         7.031303715         0.008858919
   1560000       780000.000022         0.753887129       308.166268796        -2.971126679         7.031176188         0.019315958
   1570000       785000.000022         0.721604749       294.970207939        -2.991172113         7.030795138         0.008960962
   1580000       790000.000022         0.766925804       313.496084975        -2.996228756         7.031442877         0.010882139
   1590000       795000.000023         0.749883008       306.529505194        -2.957893834         7.031873759         0.008612156
   1600000       800000.000023         0.747795835       305.676332022        -2.955753735         7.031620800         0.011497974
   1610000       805000.000023         0.766722292       313.412895360        -2.952623641         7.032128547         0.008821011
   1620000       810000.000024         0.763618282       312.144070103        -3.020303302         7.031654429         0.013329983
   1630000       815000.000024         0.767033994       313.540309722        -3.019123722         7.032021686         0.011873960
   1640000       820000.000024         0.714874840       292.219224376        -2.920556706         7.033124522         0.015777111
   1650000       825000.000025         0.733633810       299.887324404        -2.975885726         7.032842673         0.011741877
   1660000       830000.000025         0.736149629       300.915714880        -2.981344908         7.033453133         0.012666941
   1670000       835000.000025         0.707650381       289.266083906        -3.005741242         7.033203567         0.011375904
   1680000       840000.000026         0.760772594       310.980838754        -3.012436645         7.033695564         0.009732962
   1690000       845000.000026         0.742045243       303.325663925        -3.006799922         7.033535958         0.008917809
   1700000       850000.000026         0.738806385       302.001716668        -2.954045119         7.034033726         0.009585142
   1710000       855000.000027         0.785386414       321.042224492        -2.955765261         7.033876906         0.008847952
   1720000       860000.000027         0.713262144       291.560002996        -2.970329130         7.033549889         0.010195971
   1730000       865000.000027         0.757909693       309.810571407        -3.035336031         7.032795617         0.009664059
   1740000       870000.000028         0.728970307       297.981025105        -2.949990812         7.033639872         0.009247065
   1750000       875000.000028         0.757979140       309.838959381        -2.927952568         7.033935650         0.012042999
   1760000       880000.000028         0.726574595       297.001730494        -2.918855473         7.034511820         0.009773016
   1770000       885000.000029         0.762421002       311.654658246        -2.980048291         7.034273438         0.008016825
   1780000       890000.000029         0.702490180       287.156749665        -2.967687528         7.033839610         0.007272959
   1790000       895000.000029         0.744688260       304.406049217        -2.982032069         7.033496714         0.009787798
   1800000       900000.000030         0.740090455       302.526605558        -2.970180496         7.034052355         0.007961035
   1810000       905000.000030         0.725865098       296.711709790        -2.994249077         7.034170535         0.006829023
   1820000       910000.000030         0.753232721       307.898766569        -2.953973282         7.034278638         0.010015965
   1830000       915000.000031         0.759320485       310.387260693        -2.970024606         7.033932096         0.007930040
   1840000       920000.000031         0.678363706       277.294576584        -3.046680893         7.033684223         0.010742903
   1850000       925000.000031         0.707583278       289.238654459        -2.987452269         7.034155666         0.007806063
   1860000       930000.000032         0.769910599       314.716178941        -2.961184757         7.034015089         0.008990049
   1870000       935000.000032         0.722598758       295.376528517        -2.970294833         7.033714432         0.007529974
   1880000       940000.000032         0.718086772       293.532165008        -3.006910997         7.034336999         0.007343054
   1890000       945000.000033         0.737949795       301.651568617        -3.008875199         7.033980489         0.007171869
   1900000       950000.000033         0.723506517       295.747593151        -3.071421044         7.034402822         0.007727861
   1910000       955000.000033         0.723637309       295.801056745        -2.939292875         7.035339429         0.007339954
   1920000       960000.000034         0.740611824       302.739725698        -2.906455267         7.035406041         0.009793997
   1930000       965000.000034         0.749554497       306.395220082        -2.953788325         7.035991256         0.009705067
   1940000       970000.000034         0.731512822       299.020328692        -2.952884917         7.036501320         0.009388924
   1950000       975000.000035         0.716129473       292.732080384        -3.001905874         7.036543941         0.007378101
   1960000       980000.000035         0.749348527       306.311025700        -3.015683749         7.036125668         0.012837172
   1970000       985000.000035         0.746194717       305.021843433        -2.973920994         7.036233673         0.011130095
   1980000       990000.000036         0.744039719       304.140945192        -3.001299162         7.035875132         0.006478786
   1990000       995000.000036         0.719175735       293.977300377        -2.946261622         7.036778611         0.008535147
   2000000      1000000.000036         0.747904246       305.720647315        -2.966335190         7.036894716         0.009603977
   2010000      1005000.000037         0.750586675       306.817142869        -2.962764863         7.036655064         0.008096218
   2020000      1010000.000037         0.759273640       310.368111566        -3.009262687         7.036416316         0.013163090
   2030000      1015000.000037         0.691195908       282.539993009        -3.060284550         7.036185882         0.007190943
   2040000      1020000.000038         0.692514521       283.079002128        -2.894512057         7.037139686         0.010300159
   2050000      1025000.000038         0.787834279       322.042837600        -2.967536934         7.036129744         0.009989023
   2060000      1030000.000038         0.736677163       301.131354851        -3.023290552         7.036429291         0.009183884
   2070000      1035000.000039         0.690632992       282.309889908        -3.056430004         7.036795454         0.008913040
   2080000      1040000.000039         0.716015517       292.685498756        -3.033380349         7.037591526         0.009824991
   2090000      1045000.000039         0.772326158       315.703586451        -3.011513981         7.037616736         0.009374142
   2100000      1050000.000040         0.755243344       308.720648634        -2.960538156         7.038153799         0.014373064
   2110000      1055000.000040         0.782439016       319.837417123        -3.011159773         7.037833635         0.011523962
   2120000      1060000.000040         0.771285395       315.278153967        -3.016480584         7.038073147         0.009198904
   2130000      1065000.000041         0.718231779       293.591439730        -2.964305905         7.037939920         0.009956121
   2140000      1070000.000041         0.740654485       302.757164037        -2.961977905         7.038423299         0.008077860
   2150000      1075000.000041         0.733793605       299.952643728        -2.988417499         7.037224002         0.008047819
   2160000      1080000.000042         0.725312913       296.485993327        -3.015138960         7.037341759         0.010208845
   2170000      1085000.000042         0.761413423       311.242790194        -2.973174953         7.037265857         0.014788151
   2180000      1090000.000042         0.737941475       301.648167494        -2.949520891         7.037765754         0.011863947
   2190000      1095000.000043         0.732817052       299.553458204        -2.952762012         7.036896763         0.008435011
   2200000      1100000.000043         0.700387548       286.297257624        -2.990832463         7.036866369         0.009994030
   2210000      1105000.000043         0.713217805       291.541878798        -3.030327111         7.036845832         0.007665873
   2220000      1110000.000044         0.727247623       297.276844206        -3.013824185         7.036485338         0.009858131
   2230000      1115000.000044         0.753571568       308.037276986        -3.040285125         7.036236510         0.007709026
   2240000      1120000.000044         0.737791748       301.586963632        -2.960346191         7.037623934         0.008858919
   2250000      1125000.000045         0.661758105       270.506708920        -2.946470486         7.037408000         0.009173870
   2260000      1130000.000045         0.769095428       314.382961891        -2.911625559         7.037566655         0.011641979
   2270000      1135000.000045         0.691695198       282.744087434        -2.958527274         7.037529345         0.009162903