#     Step Nr.          Time[fs]        Kin.[a.u.]          Temp[K]            Pot.[a.u.]        Cons Qty[a.u.]        UsedTime[s]
  30740000     15370000.002904         0.745969765       304.929889934        -2.995602266         7.168107040         0.008229971
  30750000     15375000.002917         0.744133612       304.179326174        -3.027562796         7.168353840         0.008362055
  30760000     15380000.002930         0.716617904       292.931736479        -3.019006188         7.167998642         0.006875038
  30770000     15385000.002943         0.722529719       295.348307638        -3.015387139         7.168388709         0.007843018
  30780000     15390000.002956         0.707877202       289.358801560        -3.006365102         7.168340922         0.007915974
  30790000     15395000.002969         0.742208849       303.392541019        -2.960706178         7.168707369         0.008812904
  30800000     15400000.002982         0.720593714       294.556927082        -2.927788540         7.169497074         0.009319067
  30810000     15405000.002995         0.726759352       297.077253897        -2.955418855         7.168833667         0.007308960
  30820000     15410000.003008         0.757046922       309.457896834        -3.000134971         7.168398971         0.008007050
  30830000     15415000.003021         0.724504177       296.155406476        -2.986198604         7.169222040         0.008569002
  30840000     15420000.003033         0.676770828       276.643456083        -3.072374847         7.168563580         0.008030891
  30850000     15425000.003046         0.709001573       289.818410430        -2.998686061         7.168987066         0.008229017
  30860000     15430000.003059         0.730771462       298.717283073        -2.953753138         7.168107164         0.007699966
  30870000     15435000.003072         0.703428798       287.540428435        -2.984762391         7.168613829         0.008557796
  30880000     15440000.003085         0.751367601       307.136361852        -3.019879777         7.168783366         0.008846045
  30890000     15445000.003098         0.731838932       299.153632475        -2.981317091         7.169464761         0.008307934
  30900000     15450000.003111         0.721910852       295.095333356        -3.020753843         7.169569848         0.007658005
  30910000     15455000.003124         0.720500769       294.518934163        -3.011729462         7.170257803         0.007869959
  30920000     15460000.003137         0.727336012       297.312974823        -2.996781619         7.169410148         0.008019924
  30930000     15465000.003150         0.742762045       303.618671017        -3.038961877         7.169539778         0.008910894
  30940000     15470000.003163         0.745851515       304.881552778        -3.018677607         7.169554458         0.007493019
  30950000     15475000.003176         0.710074668       290.257059282        -3.008364571         7.169794546         0.008419991
  30960000     15480000.003189         0.743865446       304.069707957        -3.020459287         7.169425483         0.007627964
  30970000     15485000.003202         0.718710894       293.787287302        -3.062731357         7.169648426         0.006058216
  30980000     15490000.003215         0.729153758       298.056014628        -3.008276184         7.169559253         0.018337965
  30990000     15495000.003228         0.733320887       299.759411059        -2.996098985         7.169110150         0.009186983
  31000000     15500000.003241         0.723053606       295.562456651        -3.015122248         7.169024799         0.007251978
  31010000     15505000.003254         0.690674945       282.327038728        -2.950059036         7.169803937         0.007077932
  31020000     15510000.003267         0.707898140       289.367360322        -3.048586480         7.169267506         0.008335829
  31030000     15515000.003279         0.729829263       298.332140374        -3.050221870         7.169216298         0.008698225
  31040000     15520000.003292         0.719770307       294.220343195        -2.997268979         7.169722305         0.009793043
  31050000     15525000.003305         0.696882759       284.864605528        -3.051369550         7.169469320         0.008009911
  31060000     15530000.003318         0.749399264       306.331765471        -3.026871522         7.169118692         0.008064032
  31070000     15535000.003331         0.717854667       293.437287480        -3.041485705         7.169616886         0.012890100
  31080000     15540000.003344         0.718268794       293.606570184        -2.968224847         7.169531694         0.007079840
  31090000     15545000.003357         0.697346759       285.054274973        -3.016298407         7.170221610         0.008630991
  31100000     15550000.003370         0.722004422       295.133582050        -2.911446849         7.171233460         0.007592916
  31110000     15555000.003383         0.761740313       311.376413069        -3.040368963         7.171112862         0.007118940
  31120000     15560000.003396         0.709494848       290.020046334        -2.990643752         7.171655482         0.007818937
  31130000     15565000.003409         0.748841934       306.103945609        -2.975589649         7.172396064         0.007137060
  31140000     15570000.003422         0.723440875       295.720760818        -2.942397887         7.172271264         0.008471012
  31150000     15575000.003435         0.749522274       306.382048236        -3.008463551         7.172102983         0.010169983
  31160000     15580000.003448         0.728202106       297.667007780        -2.988566621         7.172893696         0.011034966
  31170000     15585000.003461         0.708114840       289.455940739        -2.985096192         7.172758411         0.007518053
  31180000     15590000.003474         0.758980712       310.248371601        -3.015535787         7.172047001         0.015573025
  31190000     15595000.003487         0.784763334       320.787528234        -2.985161544         7.172492990         0.009159088
  31200000     15600000.003500         0.723038759       295.556387795        -2.939489063         7.172041052         0.008347988
  31210000     15605000.003512         0.710037405       290.241827389        -2.945512081         7.172268079         0.008591175
  31220000     15610000.003525         0.707620006       289.253667585        -3.005832436         7.172027314         0.008759975
  31230000     15615000.003538         0.771794867       315.486410702        -3.029460081         7.172147106         0.008525133
  31240000     15620000.003551         0.729484775       298.191324038        -3.021053631         7.172121451         0.008678913
  31250000     15625000.003564         0.717053329       293.109724888        -3.071011792         7.170989862         0.008198023
  31260000     15630000.003577         0.724487703       296.148672331        -3.044521845         7.171159603         0.008955002
  31270000     15635000.003590         0.754108492       308.256755258        -3.008262913         7.171771757         0.008830070
  31280000     15640000.003603         0.701912591       286.920649109        -2.945197470         7.171864164         0.007169962
  31290000     15645000.003616         0.722960315       295.524322119        -3.005638122         7.171588174         0.007486105
  31300000     15650000.003629         0.746922917       305.319509502        -3.007624301         7.172035180         0.008368969
  31310000     15655000.003642         0.705015310       288.188946747        -2.969737332         7.172066957         0.009298086
  31320000     15660000.003655         0.694331234       283.821619382        -2.986441193         7.171562255         0.008562803
  31330000     15665000.003668         0.694265360       283.794692007        -3.006415774         7.171470830         0.007905960
  31340000     15670000.003681         0.703875794       287.723146826        -2.990850143         7.171852007         0.010986090
  31350000     15675000.003694         0.723726551       295.837536432        -3.003320034         7.171796787         0.007474899
  31360000     15680000.003707         0.741202931       302.981352016        -2.938996838         7.172894377         0.007499933
  31370000     15685000.003720         0.725649836       296.623717150        -2.947368312         7.172190499         0.007148981
  31380000     15690000.003733         0.755442713       308.802144607        -3.025371613         7.172156154         0.008219004
  31390000     15695000.003746         0.756181657       309.104202654        -3.034794014         7.171995306         0.008249998
  31400000     15700000.003758         0.703532372       287.582766246        -2.999721082         7.171997552         0.008122206
  31410000     15705000.003771         0.716321089       292.810407300        -2.996984444         7.172209107         0.007189989
  31420000     15710000.003784         0.811852115       331.860602861        -3.035525518         7.171920960         0.008359909
  31430000     15715000.003797         0.734191192       300.115165343        -3.024501966         7.172272092         0.006829023
  31440000     15720000.003810         0.759344990       310.397277406        -3.024681549         7.172462677         0.008013964
  31450000     15725000.003823         0.731407288       298.977189264        -2.947318826         7.172926445         0.008281231
  31460000     15730000.003836         0.746232920       305.037459455        -3.014426839         7.171420651         0.007363081
  31470000     15735000.003849         0.734301082       300.160084784        -2.994020761         7.171167596         0.007135868
  31480000     15740000.003862         0.739369099       302.231737273        -3.048999119         7.171238846         0.008903980
  31490000     15745000.003875         0.711174997       290.706840604        -2.893610551         7.171667076         0.009941816
  31500000     15750000.003888         0.742743733       303.611185364        -2.959444612         7.170915060         0.008309841
  31510000     15755000.003901         0.757061653       309.463918341        -3.003304182         7.171201117         0.008275986
  31520000     15760000.003914         0.748423154       305.932761213        -2.986792251         7.170101371         0.008044958
  31530000     15765000.003927         0.726046546       296.785880207        -2.963869704         7.169866881         0.009122133
  31540000     15770000.003940         0.777406630       317.780330066        -2.954707025         7.169575231         0.008569956
  31550000     15775000.003953         0.720439300       294.493807652        -2.987367903         7.169718882         0.008255005
  31560000     15780000.003966         0.701360230       286.694860426        -3.001509921         7.169342177         0.008221149
  31570000     15785000.003979         0.747387322       305.509344292        -2.978572710         7.169946852         0.008409977
  31580000     15790000.003991         0.724609568       296.198487034        -2.972071076         7.169919872         0.011549950
  31590000     15795000.004004         0.741961840       303.291571220        -2.958607589         7.170717047         0.008419991
  31600000     15800000.004017         0.751550880       307.211280854        -2.997806771         7.170536564         0.009068012
  31610000     15805000.004030         0.751917827       307.361277942        -2.923118955         7.171901721         0.007312059
  31620000     15810000.004043         0.743533966       303.934209004        -2.937232614         7.172187300         0.011188984
  31630000     15815000.004056         0.758593229       310.089980110        -3.066514914         7.171146591         0.007516146
  31640000     15820000.004069         0.728955277       297.974881649        -3.041353594         7.171095232         0.008667946
  31650000     15825000.004082         0.736070588       300.883405518        -2.979653371         7.171821095         0.009232998
  31660000     15830000.004095         0.775500336       317.001094734        -2.962509072         7.172056153         0.008852005
  31670000     15835000.004108         0.719044306       293.923575917        -2.994146284         7.172057337         0.008144855
  31680000     15840000.004121         0.748974872       306.158286703        -2.911676415         7.172327801         0.009423018
  31690000     15845000.004134         0.753005442       307.805861939        -3.038481115         7.171454155         0.010062933
  31700000     15850000.004147         0.710038503       290.242276100        -3.041107374         7.170752728         0.009032011
  31710000     15855000.004160         0.739195665       302.160842491        -2.973537881         7.171550147         0.006985903
  31720000     15860000.004173         0.695905253       284.465030873        -3.066569859         7.171262183         0.008177996
  31730000     15865000.004186         0.711447020       290.818035432        -3.000595507         7.171276185         0.010267019
  31740000     15870000.004199         0.725406759       296.524354677        -3.010688223         7.171024923         0.009237051
  31750000     15875000.004212         0.751538306       307.206141142        -2.970212884         7.171227061         0.008177996
  31760000     15880000.004224         0.755605592       308.868724627        -3.003291341         7.171449201         0.012773037
  31770000     15885000.004237         0.735238155       300.543131971        -3.040442923         7.171466699         0.008230925
  31780000     15890000.004250         0.717869367       293.443296400        -3.064008470         7.170807980         0.008704901
  31790000     15895000.004263         0.698630983       285.579226953        -3.026293393         7.170791834         0.010128975
  31800000     15900000.004276         0.766433765       313.294954558        -3.007628934         7.170925731         0.008790016
  31810000     15905000.004289         0.798174855       326.269752605        -2.971486239         7.171559477         0.009755135
  31820000     15910000.004302         0.714379191       292.016618270        -3.004375149         7.171055307         0.007696152
  31830000     15915000.004315         0.692214882       282.956518551        -2.915455988         7.171934717         0.008225203
  31840000     15920000.004328         0.781251291       319.351910995        -3.001946651         7.171692820         0.009251118
  31850000     15925000.004341         0.743050340       303.736517134        -2.959591253         7.170850747         0.007974863
  31860000     15930000.004354         0.722196329       295.212027680        -2.998084911         7.171273816         0.010241032
  31870000     15935000.004367         0.767340822       313.665731783        -2.974493266         7.172034315         0.008692980
  31880000     15940000.004380         0.731794253       299.135368882        -2.966753787         7.172815210         0.009564161
  31890000     15945000.004393         0.725958129       296.749737895        -2.996311834         7.172730485         0.007219076
  31900000     15950000.004406         0.742513443       303.517049928        -3.000638515         7.172705007         0.008235931
  31910000     15955000.004419         0.747960423       305.743610479        -2.971150446         7.172755538         0.007848978
  31920000     15960000.004432         0.733947929       300.015726574        -2.942393607         7.173118930         0.009110928
  31930000     15965000.004445         0.759393845       310.417247994        -3.024187271         7.172424632         0.008260965
  31940000     15970000.004458         0.731935176       299.192974187        -2.990899113         7.173319641         0.007954121
  31950000     15975000.004470         0.773273241       316.090725505        -3.012903456         7.173178570         0.008177042
  31960000     15980000.004483         0.721528756       294.939144071        -2.942441209         7.173223290         0.014369965
  31970000     15985000.004496         0.745117131       304.581358675        -2.949662332         7.173274719         0.008716106
  31980000     15990000.004509         0.770949542       315.140867679        -2.935125614         7.173122868         0.014361143
  31990000     15995000.004522         0.721190518       294.800882851        -2.989076513         7.173168669         0.009434938
  32000000     16000000.004535         0.747561647       305.580602861        -3.006653270         7.173186864         0.016216993
  32010000     16005000.004548         0.745843197       304.878152598        -3.021180400         7.173146929         0.008203983
  32020000     16010000.004561         0.708837427       289.751312489        -3.006827290         7.173945828         0.008381128
  32030000     16015000.004574         0.730148372       298.462582697        -3.018540186         7.173672432         0.008758068
  32040000     16020000.004587         0.761905892       311.444096911        -3.009450424         7.173319624         0.009144783
  32050000     16025000.004600         0.731433412       298.987868244        -2.933001324         7.174595436         0.007791042
  32060000     16030000.004613         0.719340794       294.044771518        -2.936420815         7.174722598         0.009165049
  32070000     16035000.004626         0.715325100       292.403277122        -3.060923443         7.174625407         0.009057045
  32080000     16040000.004639         0.733617041       299.880469850        -3.016451020         7.174508974         0.008898020
  32090000     16045000.004652         0.710872838       290.583327156        -2.977050801         7.175534065         0.009384871
  32100000     16050000.004665         0.716718524       292.972866544        -2.984632820         7.175734628         0.010758877
  32110000     16055000.004678         0.719524601       294.119906045        -2.982963933         7.175464524         0.009124041
  32120000     16060000.004691         0.750975351       306.976021983        -2.998614217         7.175054885         0.008754015
  32130000     16065000.004703         0.701959600       286.939864783        -2.997326135         7.174880036         0.007596970
  32140000     16070000.004716         0.741051989       302.919651607        -2.959366018         7.175126417         0.013785124
  32150000     16075000.004729         0.751450408       307.170210883        -2.952177591         7.175561551         0.009157896
  32160000     16080000.004742         0.722619991       295.385208198        -2.953191126         7.175301733         0.015580893
  32170000     16085000.004755         0.719115859       293.952824729        -3.011222272         7.175117339         0.010065079
  32180000     16090000.004768         0.756805888       309.359369386        -2.942816201         7.176278036         0.009490013
  32190000     16095000.004781         0.764903136       312.669279648        -2.958490948         7.175720147         0.008415937
  32200000     16100000.004794         0.764742798       312.603738067        -2.960676457         7.176468259         0.010323048
  32210000     16105000.004807         0.723997012       295.948092494        -2.984377297         7.176191564         0.011492014
  32220000     16110000.004820         0.744796068       304.450117948        -2.996198732         7.176018990         0.016412020
  32230000     16115000.004833         0.737458499       301.450741582        -3.026527629         7.175706846         0.010368109
  32240000     16120000.004846         0.757716945       309.731782067        -3.057404893         7.176200836         0.008922815
  32250000     16125000.004859         0.736473951       301.048288034        -2.997548705         7.176672016         0.008523941
  32260000     16130000.004872         0.749802860       306.496743104        -3.031416648         7.176986491         0.011039019
  32270000     16135000.004885         0.732382689       299.375903861        -2.960868954         7.176984950         0.009917021
  32280000     16140000.004898         0.701935628       286.930065783        -2.996953574         7.176480857         0.007621050
  32290000     16145000.004911         0.708370808       289.560572663        -2.992848922         7.176500657         0.008847952
  32300000     16150000.004924         0.738470517       301.864423813        -3.021066718         7.176128472         0.007381916
  32310000     16155000.004937         0.711003942       290.636918543        -2.995796473         7.176136541         0.008305073
  32320000     16160000.004949         0.757533428       309.656765811        -3.010458937         7.176373223         0.008080959
  32330000     16165000.004962         0.738181255       301.746182249        -2.932284333         7.176334090         0.009544849
  32340000     16170000.004975         0.760685791       310.945356401        -2.974084827         7.175947943         0.012068033
  32350000     16175000.004988         0.719974629       294.303863942        -3.034655163         7.175967087         0.010515928
  32360000     16180000.005001         0.709903644       290.187149689        -2.986432184         7.176026182         0.009963989
  32370000     16185000.005014         0.692441127       283.049000705        -3.016790063         7.176227802         0.016825914
  32380000     16190000.005027         0.767153844       313.589300811        -2.952465596         7.177025931         0.006623983
  32390000     16195000.005040         0.759668883       310.529675346        -3.004312323         7.177170074         0.009589911
  32400000     16200000.005053         0.740134288       302.544523417        -2.957249170         7.177317351         0.008759022
  32410000     16205000.005066         0.726562758       296.996891846        -2.976782156         7.177694535         0.008003950
  32420000     16210000.005079         0.745082219       304.567087723        -3.003326937         7.177214687         0.010505915
  32430000     16215000.005092         0.693304530       283.401933674        -2.960062406         7.177336405         0.009619951
  32440000     16220000.005105         0.716301675       292.802471654        -2.966096713         7.176978324         0.009833097
  32450000     16225000.005118         0.735025728       300.456298441        -2.998361670         7.177392064         0.008715153
  32460000     16230000.005131         0.720261534       294.421141982        -2.997834613         7.177002575         0.010224104
  32470000     16235000.005144         0.787119438       321.750632143        -2.967270285         7.177395353         0.010122061
  32480000     16240000.005157         0.770352540       314.896831189        -2.977717809         7.177791801         0.008621216
  32490000     16245000.005170         0.756162478       309.096362928        -3.002784168         7.178267596         0.009559870
  32500000     16250000.005182         0.744535775       304.343717909        -3.010314953         7.178108702         0.013978958
  32510000     16255000.005195         0.702463267       287.145748425        -2.981526629         7.177451260         0.008551121
  32520000     16260000.005208         0.763055563       311.914047722        -2.981991462         7.176924403         0.008133173
  32530000     16265000.005221         0.756891616       309.394412323        -3.009231281         7.177129072         0.008141994
  32540000     16270000.005234         0.757659157       309.708160004        -3.028891486         7.177435533         0.012172937
  32550000     16275000.005247         0.704200964       287.856066505        -3.025188194         7.177491959         0.009468079
  32560000     16280000.005260         0.765852639       313.057407509        -2.974975726         7.177783937         0.008554935
  32570000     16285000.005273         0.737637247       301.523808243        -3.039223529         7.177898633         0.008399963
  32580000     16290000.005286         0.743021336       303.724661294        -2.988661214         7.178729879         0.007828951
  32590000     16295000.005299         0.760108938       310.709556248        -3.036819888         7.177805083         0.008414984
  32600000     16300000.005312         0.776536559       317.424671245        -3.066956542         7.177752752         0.011358976
  32610000     16305000.005325         0.745382093       304.689667326        -2.961238857         7.178390776         0.011431932
  32620000     16310000.005338         0.704208957       287.859334012        -2.967880855         7.178281028         0.009360075
  32630000     16315000.005351         0.704050249       287.794459011        -2.983117481         7.177951850         0.017899036
  32640000     16320000.005364         0.710014204       290.232343338        -2.999064311         7.178101043         0.008213043
  32650000     16325000.005377         0.755574974       308.856208965        -2.966727168         7.178207078         0.010792017
  32660000     16330000.005390         0.725443026       296.539179417        -2.903209216         7.178704163         0.009970903
  32670000     16335000.005403         0.736307740       300.980346107        -3.014327964         7.178539167         0.008975983
  32680000     16340000.005416         0.735191366       300.524006256        -3.023787674         7.177935581         0.008680820
  32690000     16345000.005428         0.709619544       290.071018280        -2.981171169         7.179148328         0.008306980
  32700000     16350000.005441         0.760223299       310.756303574        -3.014591624         7.179024133         0.009114981
  32710000     16355000.005454         0.742581190       303.544742796        -3.019325189         7.179451487         0.010748148
  32720000     16360000.005467         0.744342422       304.264681357        -2.950489291         7.180272845         0.009265184
  32730000     16365000.005480         0.729949657       298.381354081        -2.980839902         7.180260212         0.008618832
  32740000     16370000.005493         0.754356380       308.358084363        -2.989430890         7.180095237         0.010231018
  32750000     16375000.005506         0.729821537       298.328982372        -2.990534777         7.180124547         0.008880854
  32760000     16380000.005519         0.717112606       293.133955411        -2.997902826         7.180013239         0.010610819
  32770000     16385000.005532         0.700672680       286.413810740        -2.995169423         7.180319659         0.009653807
  32780000     16390000.005545         0.720934237       294.696122858        -2.967157299         7.179807093         0.008409977
  32790000     16395000.005558         0.778630532       318.280624224        -2.980972428         7.180555409         0.007380009
  32800000     16400000.005571         0.764594702       312.543201143        -3.045766970         7.180043262         0.008396864
  32810000     16405000.005584         0.727048799       297.195570925        -3.022398078         7.180360224         0.008393049
  32820000     16410000.005597         0.762203815       311.565878884        -2.984768633         7.181033581         0.008598089
  32830000     16415000.005610         0.785969301       321.280491010        -2.986647058         7.180467307         0.008655071
  32840000     16420000.005623         0.738045017       301.690492500        -2.981310225         7.180293419         0.009093046
  32850000     16425000.005636         0.734377429       300.191293421        -2.974199248         7.179769603         0.008692980
  32860000     16430000.005649         0.705681705       288.461348882        -2.988308453         7.179589826         0.014117956
  32870000     16435000.005661         0.759422314       310.428885020        -2.924267427         7.180240210         0.008075953
  32880000     16440000.005674         0.741860625       303.250197514        -3.000948614         7.179328742         0.010342121
  32890000     16445000.005687         0.709669984       290.091636785        -2.918743672         7.180695798         0.009437084
  32900000     16450000.005700         0.721615867       294.974752539        -3.005356289         7.179879356         0.009900093
  32910000     16455000.005713         0.730110991       298.447302285        -2.969426301         7.179957320         0.009533882
  32920000     16460000.005726         0.726501758       296.971957102        -3.012790234         7.180122488         0.008008003
  32930000     16465000.005739         0.780996348       319.247698122        -2.998320146         7.180174045         0.008717060
  32940000     16470000.005752         0.703899380       287.732788314        -2.950159215         7.180584204         0.008490086
  32950000     16475000.005765         0.746756253       305.251382537        -3.028942880         7.180803277         0.007281065
  32960000     16480000.005778         0.770613071       315.003328481        -2.994058967         7.180985868         0.007224083
  32970000     16485000.005791         0.712243297       291.143529167        -2.953095771         7.181533999         0.007843018
  32980000     16490000.005804         0.745517216       304.744901500        -3.074645786         7.180970446         0.007730007
  32990000     16495000.005817         0.789308836       322.645592140        -3.023865739         7.181271455         0.007786989
  33000000     16500000.005830         0.766606226       313.365451351        -2.999649946         7.180317699         0.007253170
  33010000     16505000.005843         0.704083705       287.808134812        -2.947546400         7.180940031         0.008337021