 DBCSR| CPU Multiplication driver                                           XSMM
 DBCSR| Multrec recursion limit                                              512
 DBCSR| Multiplication stack size                                           1000
 DBCSR| Maximum elements for images                                    UNLIMITED
 DBCSR| Multiplicative factor virtual images                                   1
 DBCSR| Use multiplication densification                                       T
 DBCSR| Multiplication size stacks                                             3
 DBCSR| Use memory pool for CPU allocation                                     F
 DBCSR| Number of 3D layers                                               SINGLE
 DBCSR| Use MPI memory allocation                                              F
 DBCSR| Use RMA algorithm                                                      F
 DBCSR| Use Communication thread                                               T
 DBCSR| Communication thread load                                             83
 DBCSR| MPI: My node id                                                        0
 DBCSR| MPI: Number of nodes                                                 256
 DBCSR| OMP: Current number of threads                                         2
 DBCSR| OMP: Max number of threads                                             2
 DBCSR| Split modifier for TAS multiplication algorithm                  1.0E+00


  **** **** ******  **  PROGRAM STARTED AT               2024-01-15 21:11:00.363
 ***** ** ***  *** **   PROGRAM STARTED ON                           hx1-c07-1-1
 **    ****   ******    PROGRAM STARTED BY                                cahart
 ***** **    ** ** **   PROGRAM PROCESS ID                                136988
  **** **  *******  **  PROGRAM STARTED IN /gpfs/home/cahart/transport/melamine/
                                           au_from-h2/iv-curve/single-point/ts2-
                                           guess-notip/iv_curve/V_-1.0

 CP2K| version string:                 CP2K version 2022.1 (Development Version)
 CP2K| source code revision number:                                  git:5518aa6
 CP2K| cp2kflags: omp libint fftw3 libxc parallel mpi3 scalapack xsmm plumed2   
 CP2K| is freely available from                            https://www.cp2k.org/
 CP2K| Program compiled at                          Thu 21 Sep 19:20:17 BST 2023
 CP2K| Program compiled on                                       hx1-c12-login-1
 CP2K| Program compiled for                                                local
 CP2K| Data directory path    /gpfs/easybuild/prod/software/CP2K/2022.1-foss-202
 CP2K| Input file name                                               4_-1.0V.inp

 GLOBAL| Force Environment number                                              1
 GLOBAL| Basis set file name                                        BASIS_MOLOPT
 GLOBAL| Potential file name                                      GTH_POTENTIALS
 GLOBAL| MM Potential file name                                     MM_POTENTIAL
 GLOBAL| Coordinate file name                                             em.xyz
 GLOBAL| Method name                                                        CP2K
 GLOBAL| Project name                                                      -1.0V
 GLOBAL| Run type                                                         ENERGY
 GLOBAL| FFT library                                                       FFTW3
 GLOBAL| Diagonalization library                                       ScaLAPACK
 GLOBAL| Orthonormality check for eigenvectors                          DISABLED
 GLOBAL| Matrix multiplication library                                 ScaLAPACK
 GLOBAL| All-to-all communication in single precision                          F
 GLOBAL| FFTs using library dependent lengths                                  T
 GLOBAL| Grid backend                                                       AUTO
 GLOBAL| Global print level                                               MEDIUM
 GLOBAL| MPI I/O enabled                                                       T
 GLOBAL| Total number of message passing processes                           256
 GLOBAL| Number of threads for this process                                    2
 GLOBAL| This output is from process                                           0
 GLOBAL| Stack size for threads created by OpenMP (OMP_STACKSIZE)        default
 GLOBAL| CPU model name             Intel(R) Xeon(R) Platinum 8358 CPU @ 2.60GHz
 GLOBAL| CPUID                                                              1003

 MEMORY| system memory details [Kb]
 MEMORY|                        rank 0           min           max       average
 MEMORY| MemTotal            527652796     527652780     527652796     527652790
 MEMORY| MemFree             508646432     508245000     509033280     508747797
 MEMORY| Buffers                  5388          5388          5480          5468
 MEMORY| Cached                1749836       1749836       2212288       2118481
 MEMORY| Slab                  1468672       1468672       1610184       1582466
 MEMORY| SReclaimable           573640        573640        713684        690470
 MEMORY| MemLikelyFree       510975296     510975296     511918696     511562217


 *** Fundamental physical constants (SI units) ***

 *** Literature: B. J. Mohr and B. N. Taylor,
 ***             CODATA recommended values of the fundamental physical
 ***             constants: 2006, Web Version 5.1
 ***             http://physics.nist.gov/constants

 Speed of light in vacuum [m/s]                             2.99792458000000E+08
 Magnetic constant or permeability of vacuum [N/A**2]       1.25663706143592E-06
 Electric constant or permittivity of vacuum [F/m]          8.85418781762039E-12
 Planck constant (h) [J*s]                                  6.62606896000000E-34
 Planck constant (h-bar) [J*s]                              1.05457162825177E-34
 Elementary charge [C]                                      1.60217648700000E-19
 Electron mass [kg]                                         9.10938215000000E-31
 Electron g factor [ ]                                     -2.00231930436220E+00
 Proton mass [kg]                                           1.67262163700000E-27
 Fine-structure constant                                    7.29735253760000E-03
 Rydberg constant [1/m]                                     1.09737315685270E+07
 Avogadro constant [1/mol]                                  6.02214179000000E+23
 Boltzmann constant [J/K]                                   1.38065040000000E-23
 Atomic mass unit [kg]                                      1.66053878200000E-27
 Bohr radius [m]                                            5.29177208590000E-11

 *** Conversion factors ***

 [u] -> [a.u.]                                              1.82288848426455E+03
 [Angstrom] -> [Bohr] = [a.u.]                              1.88972613288564E+00
 [a.u.] = [Bohr] -> [Angstrom]                              5.29177208590000E-01
 [a.u.] -> [s]                                              2.41888432650478E-17
 [a.u.] -> [fs]                                             2.41888432650478E-02
 [a.u.] -> [J]                                              4.35974393937059E-18
 [a.u.] -> [N]                                              8.23872205491840E-08
 [a.u.] -> [K]                                              3.15774647902944E+05
 [a.u.] -> [kJ/mol]                                         2.62549961709828E+03
 [a.u.] -> [kcal/mol]                                       6.27509468713739E+02
 [a.u.] -> [Pa]                                             2.94210107994716E+13
 [a.u.] -> [bar]                                            2.94210107994716E+08
 [a.u.] -> [atm]                                            2.90362800883016E+08
 [a.u.] -> [eV]                                             2.72113838565563E+01
 [a.u.] -> [Hz]                                             6.57968392072181E+15
 [a.u.] -> [1/cm] (wave numbers)                            2.19474631370540E+05
 [a.u./Bohr**2] -> [1/cm]                                   5.14048714338585E+03
 

 CELL_TOP| Volume [angstrom^3]:                                      4593.719514
 CELL_TOP| Vector a [angstrom    14.582     0.000     0.000   |a| =    14.582000
 CELL_TOP| Vector b [angstrom     0.000     8.866     0.000   |b| =     8.866000
 CELL_TOP| Vector c [angstrom     0.000     0.000    35.532   |c| =    35.532000
 CELL_TOP| Angle (b,c), alpha [degree]:                                90.000000
 CELL_TOP| Angle (a,c), beta  [degree]:                                90.000000
 CELL_TOP| Angle (a,b), gamma [degree]:                                90.000000
 CELL_TOP| Numerically orthorhombic:                                         YES
 CELL_TOP| Periodicity                                                       XYZ

 GENERATE|  Preliminary Number of Bonds generated:                             0
 GENERATE|  Achieved consistency in connectivity generation.

 CELL| Volume [angstrom^3]:                                          4593.719514
 CELL| Vector a [angstrom]:      14.582     0.000     0.000   |a| =    14.582000
 CELL| Vector b [angstrom]:       0.000     8.866     0.000   |b| =     8.866000
 CELL| Vector c [angstrom]:       0.000     0.000    35.532   |c| =    35.532000
 CELL| Angle (b,c), alpha [degree]:                                    90.000000
 CELL| Angle (a,c), beta  [degree]:                                    90.000000
 CELL| Angle (a,b), gamma [degree]:                                    90.000000
 CELL| Numerically orthorhombic:                                             YES
 CELL| Periodicity                                                           XYZ

 CELL_REF| Volume [angstrom^3]:                                      4593.719514
 CELL_REF| Vector a [angstrom    14.582     0.000     0.000   |a| =    14.582000
 CELL_REF| Vector b [angstrom     0.000     8.866     0.000   |b| =     8.866000
 CELL_REF| Vector c [angstrom     0.000     0.000    35.532   |c| =    35.532000
 CELL_REF| Angle (b,c), alpha [degree]:                                90.000000
 CELL_REF| Angle (a,c), beta  [degree]:                                90.000000
 CELL_REF| Angle (a,b), gamma [degree]:                                90.000000
 CELL_REF| Numerically orthorhombic:                                         YES
 CELL_REF| Periodicity                                                       XYZ

 *** WARNING in cryssym.F:165 :: Symmetry library SPGLIB not available ***


 *******************************************************************************
                                    Kpoints
 *******************************************************************************
 BRILLOUIN| K-point scheme                                        Monkhorst-Pack
 BRILLOUIN| K-Point grid                                             2    4    1
 BRILLOUIN| Accuracy in Symmetry determination                      0.100000E-07
 BRILLOUIN| K-Point point group symmetrization                               OFF
 BRILLOUIN| Wavefunction type                                            COMPLEX
 BRILLOUIN| Use full k-point grid     
 BRILLOUIN| List of Kpoints [2 Pi/Bohr]                                        8
 BRILLOUIN| Number           Weight            X              Y              Z
 BRILLOUIN|     1           0.12500       -0.25000       -0.37500        0.00000
 BRILLOUIN|     2           0.12500       -0.25000       -0.12500        0.00000
 BRILLOUIN|     3           0.12500       -0.25000        0.12500        0.00000
 BRILLOUIN|     4           0.12500       -0.25000        0.37500        0.00000
 BRILLOUIN|     5           0.12500        0.25000       -0.37500        0.00000
 BRILLOUIN|     6           0.12500        0.25000       -0.12500        0.00000
 BRILLOUIN|     7           0.12500        0.25000        0.12500        0.00000
 BRILLOUIN|     8           0.12500        0.25000        0.37500        0.00000
 *******************************************************************************

 *******************************************************************************
 *******************************************************************************
 **                                                                           **
 **     #####                         ##              ##                      **
 **    ##   ##            ##          ##              ##                      **
 **   ##     ##                       ##            ######                    **
 **   ##     ##  ##   ##  ##   #####  ##  ##   ####   ##    #####    #####    **
 **   ##     ##  ##   ##  ##  ##      ## ##   ##      ##   ##   ##  ##   ##   **
 **   ##  ## ##  ##   ##  ##  ##      ####     ###    ##   ######   ######    **
 **    ##  ###   ##   ##  ##  ##      ## ##      ##   ##   ##       ##        **
 **     #######   #####   ##   #####  ##  ##  ####    ##    #####   ##        **
 **           ##                                                    ##        **
 **                                                                           **
 **                                                ... make the atoms dance   **
 **                                                                           **
 **            Copyright (C) by CP2K developers group (2000-2022)             **
 **                      J. Chem. Phys. 152, 194103 (2020)                    **
 **                                                                           **
 *******************************************************************************

 DFT| Spin restricted Kohn-Sham (RKS) calculation                            RKS
 DFT| Multiplicity                                                             2
 DFT| Number of spin states                                                    1
 DFT| Charge                                                                   0
 DFT| Self-interaction correction (SIC)                                       NO
 DFT| Cutoffs: density                                              1.000000E-10
 DFT|          gradient                                             1.000000E-10
 DFT|          tau                                                  1.000000E-10
 DFT|          cutoff_smoothing_range                               0.000000E+00
 DFT| XC density smoothing                                                  NONE
 DFT| XC derivatives                                                          PW

 FUNCTIONAL| PBE:
 FUNCTIONAL| J.P.Perdew, K.Burke, M.Ernzerhof, Phys. Rev. Letter, vol. 77, n 18,
 FUNCTIONAL|  pp. 3865-3868, (1996){spin unpolarized}                           


 QS| Method:                                                                 GPW
 QS| Density plane wave grid type                        NON-SPHERICAL FULLSPACE
 QS| Number of grid levels:                                                    4
 QS| Density cutoff [a.u.]:                                                300.0
 QS| Multi grid cutoff [a.u.]: 1) grid level                               300.0
 QS|                           2) grid level                               100.0
 QS|                           3) grid level                                33.3
 QS|                           4) grid level                                11.1
 QS| Grid level progression factor:                                          3.0
 QS| Relative density cutoff [a.u.]:                                        30.0
 QS| Interaction thresholds: eps_pgf_orb:                                1.0E-05
 QS|                         eps_filter_matrix:                          0.0E+00
 QS|                         eps_core_charge:                            1.0E-12
 QS|                         eps_rho_gspace:                             1.0E-10
 QS|                         eps_rho_rspace:                             1.0E-10
 QS|                         eps_gvg_rspace:                             1.0E-05
 QS|                         eps_ppl:                                    1.0E-02
 QS|                         eps_ppnl:                                   1.0E-07


 ATOMIC KIND INFORMATION

  1. Atomic kind: Au_bulk                               Number of atoms:     120

     Orbital Basis Set                                     SZV-MOLOPT-SR-GTH-q11

       Number of orbital shell sets:                                           1
       Number of orbital shells:                                               3
       Number of primitive Cartesian functions:                                5
       Number of Cartesian basis functions:                                   10
       Number of spherical basis functions:                                    9
       Norm type:                                                              2

       Normalised Cartesian orbitals:

                        Set   Shell   Orbital            Exponent    Coefficient

                          1       1    2s                2.950008       0.074626
                                                         1.563057      -0.007898
                                                         0.666664      -0.297688
                                                         0.251083       0.136809
                                                         0.081714       0.088198

                          1       2    3px               2.950008       0.148824
                                                         1.563057       0.025430
                                                         0.666664      -0.123003
                                                         0.251083       0.033648
                                                         0.081714       0.059008
                          1       2    3py               2.950008       0.148824
                                                         1.563057       0.025430
                                                         0.666664      -0.123003
                                                         0.251083       0.033648
                                                         0.081714       0.059008
                          1       2    3pz               2.950008       0.148824
                                                         1.563057       0.025430
                                                         0.666664      -0.123003
                                                         0.251083       0.033648
                                                         0.081714       0.059008

                          1       3    4dx2              2.950008      -0.139595
                                                         1.563057       1.319655
                                                         0.666664       0.377081
                                                         0.251083       0.046872
                                                         0.081714       0.001393
                          1       3    4dxy              2.950008      -0.241786
                                                         1.563057       2.285709
                                                         0.666664       0.653124
                                                         0.251083       0.081185
                                                         0.081714       0.002412
                          1       3    4dxz              2.950008      -0.241786
                                                         1.563057       2.285709
                                                         0.666664       0.653124
                                                         0.251083       0.081185
                                                         0.081714       0.002412
                          1       3    4dy2              2.950008      -0.139595
                                                         1.563057       1.319655
                                                         0.666664       0.377081
                                                         0.251083       0.046872
                                                         0.081714       0.001393
                          1       3    4dyz              2.950008      -0.241786
                                                         1.563057       2.285709
                                                         0.666664       0.653124
                                                         0.251083       0.081185
                                                         0.081714       0.002412
                          1       3    4dz2              2.950008      -0.139595
                                                         1.563057       1.319655
                                                         0.666664       0.377081
                                                         0.251083       0.046872
                                                         0.081714       0.001393

       Atomic covalent radius [Angstrom]:                                  1.340

       Atomic van der Waals radius [Angstrom]:                             1.660

     GTH Potential information for                                   GTH-PBE-q11

       Description:                       Goedecker-Teter-Hutter pseudopotential
                                           Goedecker et al., PRB 54, 1703 (1996)
                                          Hartwigsen et al., PRB 58, 3641 (1998)
                                                      Krack, TCA 114, 145 (2005)

       Gaussian exponent of the core charge distribution:               1.436369
       Electronic configuration (s p d ...):                           1   0  10

       Parameters of the local part of the GTH pseudopotential:

                          rloc        C1          C2          C3          C4
                        0.590000   10.517179

       Parameters of the non-local part of the GTH pseudopotential:

                   l      r(l)      h(i,j,l)

                   0    0.543847    5.786811   -2.250680
                                   -2.250680    2.905615
                   1    0.609173    4.284049   -4.071285
                                   -4.071285    4.817210
                   2    0.437309   -7.403281    3.010193
                                    3.010193   -3.413238

  2. Atomic kind: Au                                    Number of atoms:      30

     Orbital Basis Set                                     SZV-MOLOPT-SR-GTH-q11

       Number of orbital shell sets:                                           1
       Number of orbital shells:                                               3
       Number of primitive Cartesian functions:                                5
       Number of Cartesian basis functions:                                   10
       Number of spherical basis functions:                                    9
       Norm type:                                                              2

       Normalised Cartesian orbitals:

                        Set   Shell   Orbital            Exponent    Coefficient

                          1       1    2s                2.950008       0.074626
                                                         1.563057      -0.007898
                                                         0.666664      -0.297688
                                                         0.251083       0.136809
                                                         0.081714       0.088198

                          1       2    3px               2.950008       0.148824
                                                         1.563057       0.025430
                                                         0.666664      -0.123003
                                                         0.251083       0.033648
                                                         0.081714       0.059008
                          1       2    3py               2.950008       0.148824
                                                         1.563057       0.025430
                                                         0.666664      -0.123003
                                                         0.251083       0.033648
                                                         0.081714       0.059008
                          1       2    3pz               2.950008       0.148824
                                                         1.563057       0.025430
                                                         0.666664      -0.123003
                                                         0.251083       0.033648
                                                         0.081714       0.059008

                          1       3    4dx2              2.950008      -0.139595
                                                         1.563057       1.319655
                                                         0.666664       0.377081
                                                         0.251083       0.046872
                                                         0.081714       0.001393
                          1       3    4dxy              2.950008      -0.241786
                                                         1.563057       2.285709
                                                         0.666664       0.653124
                                                         0.251083       0.081185
                                                         0.081714       0.002412
                          1       3    4dxz              2.950008      -0.241786
                                                         1.563057       2.285709
                                                         0.666664       0.653124
                                                         0.251083       0.081185
                                                         0.081714       0.002412
                          1       3    4dy2              2.950008      -0.139595
                                                         1.563057       1.319655
                                                         0.666664       0.377081
                                                         0.251083       0.046872
                                                         0.081714       0.001393
                          1       3    4dyz              2.950008      -0.241786
                                                         1.563057       2.285709
                                                         0.666664       0.653124
                                                         0.251083       0.081185
                                                         0.081714       0.002412
                          1       3    4dz2              2.950008      -0.139595
                                                         1.563057       1.319655
                                                         0.666664       0.377081
                                                         0.251083       0.046872
                                                         0.081714       0.001393

       Atomic covalent radius [Angstrom]:                                  1.340

       Atomic van der Waals radius [Angstrom]:                             1.660

     GTH Potential information for                                   GTH-PBE-q11

       Description:                       Goedecker-Teter-Hutter pseudopotential
                                           Goedecker et al., PRB 54, 1703 (1996)
                                          Hartwigsen et al., PRB 58, 3641 (1998)
                                                      Krack, TCA 114, 145 (2005)

       Gaussian exponent of the core charge distribution:               1.436369
       Electronic configuration (s p d ...):                           1   0  10

       Parameters of the local part of the GTH pseudopotential:

                          rloc        C1          C2          C3          C4
                        0.590000   10.517179

       Parameters of the non-local part of the GTH pseudopotential:

                   l      r(l)      h(i,j,l)

                   0    0.543847    5.786811   -2.250680
                                   -2.250680    2.905615
                   1    0.609173    4.284049   -4.071285
                                   -4.071285    4.817210
                   2    0.437309   -7.403281    3.010193
                                    3.010193   -3.413238

  3. Atomic kind: Au_surf                               Number of atoms:      15

     Orbital Basis Set                                    DZVP-MOLOPT-SR-GTH-q11

       Number of orbital shell sets:                                           1
       Number of orbital shells:                                               7
       Number of primitive Cartesian functions:                                5
       Number of Cartesian basis functions:                                   30
       Number of spherical basis functions:                                   25
       Norm type:                                                              2

       Normalised Cartesian orbitals:

                        Set   Shell   Orbital            Exponent    Coefficient

                          1       1    2s                2.950008       0.074626
                                                         1.563057      -0.007898
                                                         0.666664      -0.297688
                                                         0.251083       0.136809
                                                         0.081714       0.088198

                          1       2    3s                2.950008       0.228793
                                                         1.563057      -0.295041
                                                         0.666664       0.955676
                                                         0.251083      -0.809517
                                                         0.081714       0.207484

                          1       3    3px               2.950008       0.148824
                                                         1.563057       0.025430
                                                         0.666664      -0.123003
                                                         0.251083       0.033648
                                                         0.081714       0.059008
                          1       3    3py               2.950008       0.148824
                                                         1.563057       0.025430
                                                         0.666664      -0.123003
                                                         0.251083       0.033648
                                                         0.081714       0.059008
                          1       3    3pz               2.950008       0.148824
                                                         1.563057       0.025430
                                                         0.666664      -0.123003
                                                         0.251083       0.033648
                                                         0.081714       0.059008

                          1       4    4px               2.950008       0.169603
                                                         1.563057      -0.791540
                                                         0.666664       0.759522
                                                         0.251083      -0.513201
                                                         0.081714       0.071875
                          1       4    4py               2.950008       0.169603
                                                         1.563057      -0.791540
                                                         0.666664       0.759522
                                                         0.251083      -0.513201
                                                         0.081714       0.071875
                          1       4    4pz               2.950008       0.169603
                                                         1.563057      -0.791540
                                                         0.666664       0.759522
                                                         0.251083      -0.513201
                                                         0.081714       0.071875

                          1       5    4dx2              2.950008      -0.139595
                                                         1.563057       1.319655
                                                         0.666664       0.377081
                                                         0.251083       0.046872
                                                         0.081714       0.001393
                          1       5    4dxy              2.950008      -0.241786
                                                         1.563057       2.285709
                                                         0.666664       0.653124
                                                         0.251083       0.081185
                                                         0.081714       0.002412
                          1       5    4dxz              2.950008      -0.241786
                                                         1.563057       2.285709
                                                         0.666664       0.653124
                                                         0.251083       0.081185
                                                         0.081714       0.002412
                          1       5    4dy2              2.950008      -0.139595
                                                         1.563057       1.319655
                                                         0.666664       0.377081
                                                         0.251083       0.046872
                                                         0.081714       0.001393
                          1       5    4dyz              2.950008      -0.241786
                                                         1.563057       2.285709
                                                         0.666664       0.653124
                                                         0.251083       0.081185
                                                         0.081714       0.002412
                          1       5    4dz2              2.950008      -0.139595
                                                         1.563057       1.319655
                                                         0.666664       0.377081
                                                         0.251083       0.046872
                                                         0.081714       0.001393

                          1       6    5dx2              2.950008      -0.047309
                                                         1.563057      -0.613535
                                                         0.666664      -0.083031
                                                         0.251083      -0.023136
                                                         0.081714       0.021870
                          1       6    5dxy              2.950008      -0.081942
                                                         1.563057      -1.062673
                                                         0.666664      -0.143813
                                                         0.251083      -0.040072
                                                         0.081714       0.037880
                          1       6    5dxz              2.950008      -0.081942
                                                         1.563057      -1.062673
                                                         0.666664      -0.143813
                                                         0.251083      -0.040072
                                                         0.081714       0.037880
                          1       6    5dy2              2.950008      -0.047309
                                                         1.563057      -0.613535
                                                         0.666664      -0.083031
                                                         0.251083      -0.023136
                                                         0.081714       0.021870
                          1       6    5dyz              2.950008      -0.081942
                                                         1.563057      -1.062673
                                                         0.666664      -0.143813
                                                         0.251083      -0.040072
                                                         0.081714       0.037880
                          1       6    5dz2              2.950008      -0.047309
                                                         1.563057      -0.613535
                                                         0.666664      -0.083031
                                                         0.251083      -0.023136
                                                         0.081714       0.021870

                          1       7    5fx3              2.950008      -0.072925
                                                         1.563057      -0.623736
                                                         0.666664      -0.068759
                                                         0.251083      -0.019565
                                                         0.081714       0.005642
                          1       7    5fx2y             2.950008      -0.163065
                                                         1.563057      -1.394716
                                                         0.666664      -0.153751
                                                         0.251083      -0.043748
                                                         0.081714       0.012617
                          1       7    5fx2z             2.950008      -0.163065
                                                         1.563057      -1.394716
                                                         0.666664      -0.153751
                                                         0.251083      -0.043748
                                                         0.081714       0.012617
                          1       7    5fxy2             2.950008      -0.163065
                                                         1.563057      -1.394716
                                                         0.666664      -0.153751
                                                         0.251083      -0.043748
                                                         0.081714       0.012617
                          1       7    5fxyz             2.950008      -0.282436
                                                         1.563057      -2.415719
                                                         0.666664      -0.266304
                                                         0.251083      -0.075774
                                                         0.081714       0.021853
                          1       7    5fxz2             2.950008      -0.163065
                                                         1.563057      -1.394716
                                                         0.666664      -0.153751
                                                         0.251083      -0.043748
                                                         0.081714       0.012617
                          1       7    5fy3              2.950008      -0.072925
                                                         1.563057      -0.623736
                                                         0.666664      -0.068759
                                                         0.251083      -0.019565
                                                         0.081714       0.005642
                          1       7    5fy2z             2.950008      -0.163065
                                                         1.563057      -1.394716
                                                         0.666664      -0.153751
                                                         0.251083      -0.043748
                                                         0.081714       0.012617
                          1       7    5fyz2             2.950008      -0.163065
                                                         1.563057      -1.394716
                                                         0.666664      -0.153751
                                                         0.251083      -0.043748
                                                         0.081714       0.012617
                          1       7    5fz3              2.950008      -0.072925
                                                         1.563057      -0.623736
                                                         0.666664      -0.068759
                                                         0.251083      -0.019565
                                                         0.081714       0.005642

       Atomic covalent radius [Angstrom]:                                  1.340

       Atomic van der Waals radius [Angstrom]:                             1.660

     GTH Potential information for                                   GTH-PBE-q11

       Description:                       Goedecker-Teter-Hutter pseudopotential
                                           Goedecker et al., PRB 54, 1703 (1996)
                                          Hartwigsen et al., PRB 58, 3641 (1998)
                                                      Krack, TCA 114, 145 (2005)

       Gaussian exponent of the core charge distribution:               1.436369
       Electronic configuration (s p d ...):                           1   0  10

       Parameters of the local part of the GTH pseudopotential:

                          rloc        C1          C2          C3          C4
                        0.590000   10.517179

       Parameters of the non-local part of the GTH pseudopotential:

                   l      r(l)      h(i,j,l)

                   0    0.543847    5.786811   -2.250680
                                   -2.250680    2.905615
                   1    0.609173    4.284049   -4.071285
                                   -4.071285    4.817210
                   2    0.437309   -7.403281    3.010193
                                    3.010193   -3.413238

  4. Atomic kind: N                                     Number of atoms:       6

     Orbital Basis Set                                        DZVP-MOLOPT-GTH-q5

       Number of orbital shell sets:                                           1
       Number of orbital shells:                                               5
       Number of primitive Cartesian functions:                                7
       Number of Cartesian basis functions:                                   14
       Number of spherical basis functions:                                   13
       Norm type:                                                              2

       Normalised Cartesian orbitals:

                        Set   Shell   Orbital            Exponent    Coefficient

                          1       1    2s                9.042730      -0.237404
                                                         3.882225      -0.265910
                                                         1.512880       0.102064
                                                         0.586631       0.295369
                                                         0.222851       0.088647
                                                         0.084583       0.003860
                                                         0.039194       0.000722

                          1       2    3s                9.042730       0.259152
                                                         3.882225       0.251432
                                                         1.512880      -0.043896
                                                         0.586631      -0.328079
                                                         0.222851       0.175857
                                                         0.084583       0.069169
                                                         0.039194       0.004207

                          1       3    3px               9.042730       0.822162
                                                         3.882225       0.990771
                                                         1.512880       0.665657
                                                         0.586631       0.321705
                                                         0.222851       0.063706
                                                         0.084583       0.004155
                                                         0.039194      -0.000005
                          1       3    3py               9.042730       0.822162
                                                         3.882225       0.990771
                                                         1.512880       0.665657
                                                         0.586631       0.321705
                                                         0.222851       0.063706
                                                         0.084583       0.004155
                                                         0.039194      -0.000005
                          1       3    3pz               9.042730       0.822162
                                                         3.882225       0.990771
                                                         1.512880       0.665657
                                                         0.586631       0.321705
                                                         0.222851       0.063706
                                                         0.084583       0.004155
                                                         0.039194      -0.000005

                          1       4    4px               9.042730      -0.251449
                                                         3.882225      -0.215479
                                                         1.512880      -0.200519
                                                         0.586631      -0.125283
                                                         0.222851       0.136219
                                                         0.084583       0.034362
                                                         0.039194       0.000879
                          1       4    4py               9.042730      -0.251449
                                                         3.882225      -0.215479
                                                         1.512880      -0.200519
                                                         0.586631      -0.125283
                                                         0.222851       0.136219
                                                         0.084583       0.034362
                                                         0.039194       0.000879
                          1       4    4pz               9.042730      -0.251449
                                                         3.882225      -0.215479
                                                         1.512880      -0.200519
                                                         0.586631      -0.125283
                                                         0.222851       0.136219
                                                         0.084583       0.034362
                                                         0.039194       0.000879

                          1       5    4dx2              9.042730       1.099742
                                                         3.882225       0.532064
                                                         1.512880       0.873643
                                                         0.586631       0.456348
                                                         0.222851       0.017840
                                                         0.084583      -0.000857
                                                         0.039194      -0.000086
                          1       5    4dxy              9.042730       1.904809
                                                         3.882225       0.921562
                                                         1.512880       1.513195
                                                         0.586631       0.790419
                                                         0.222851       0.030900
                                                         0.084583      -0.001484
                                                         0.039194      -0.000150
                          1       5    4dxz              9.042730       1.904809
                                                         3.882225       0.921562
                                                         1.512880       1.513195
                                                         0.586631       0.790419
                                                         0.222851       0.030900
                                                         0.084583      -0.001484
                                                         0.039194      -0.000150
                          1       5    4dy2              9.042730       1.099742
                                                         3.882225       0.532064
                                                         1.512880       0.873643
                                                         0.586631       0.456348
                                                         0.222851       0.017840
                                                         0.084583      -0.000857
                                                         0.039194      -0.000086
                          1       5    4dyz              9.042730       1.904809
                                                         3.882225       0.921562
                                                         1.512880       1.513195
                                                         0.586631       0.790419
                                                         0.222851       0.030900
                                                         0.084583      -0.001484
                                                         0.039194      -0.000150
                          1       5    4dz2              9.042730       1.099742
                                                         3.882225       0.532064
                                                         1.512880       0.873643
                                                         0.586631       0.456348
                                                         0.222851       0.017840
                                                         0.084583      -0.000857
                                                         0.039194      -0.000086

       Atomic covalent radius [Angstrom]:                                  0.750

       Atomic van der Waals radius [Angstrom]:                             1.550

     GTH Potential information for                                    GTH-PBE-q5

       Description:                       Goedecker-Teter-Hutter pseudopotential
                                           Goedecker et al., PRB 54, 1703 (1996)
                                          Hartwigsen et al., PRB 58, 3641 (1998)
                                                      Krack, TCA 114, 145 (2005)

       Gaussian exponent of the core charge distribution:               6.208322
       Electronic configuration (s p d ...):                               2   3

       Parameters of the local part of the GTH pseudopotential:

                          rloc        C1          C2          C3          C4
                        0.283791  -12.415226    1.868096

       Parameters of the non-local part of the GTH pseudopotential:

                   l      r(l)      h(i,j,l)

                   0    0.255405   13.630263
                   1    0.245495

  5. Atomic kind: H                                     Number of atoms:       4

     Orbital Basis Set                                        DZVP-MOLOPT-SR-GTH

       Number of orbital shell sets:                                           1
       Number of orbital shells:                                               3
       Number of primitive Cartesian functions:                                5
       Number of Cartesian basis functions:                                    5
       Number of spherical basis functions:                                    5
       Norm type:                                                              2

       Normalised Cartesian orbitals:

                        Set   Shell   Orbital            Exponent    Coefficient

                          1       1    2s               10.068468      -0.133023
                                                         2.680223      -0.177618
                                                         0.791502      -0.258419
                                                         0.239116      -0.107525
                                                         0.082193      -0.014019

                          1       2    3s               10.068468       0.344673
                                                         2.680223       1.819821
                                                         0.791502      -0.999069
                                                         0.239116       0.017430
                                                         0.082193       0.082660

                          1       3    3px              10.068468       0.155326
                                                         2.680223       0.367157
                                                         0.791502       0.311480
                                                         0.239116       0.080105
                                                         0.082193       0.033440
                          1       3    3py              10.068468       0.155326
                                                         2.680223       0.367157
                                                         0.791502       0.311480
                                                         0.239116       0.080105
                                                         0.082193       0.033440
                          1       3    3pz              10.068468       0.155326
                                                         2.680223       0.367157
                                                         0.791502       0.311480
                                                         0.239116       0.080105
                                                         0.082193       0.033440

       Atomic covalent radius [Angstrom]:                                  0.320

       Atomic van der Waals radius [Angstrom]:                             1.090

     GTH Potential information for                                    GTH-PBE-q1

       Description:                       Goedecker-Teter-Hutter pseudopotential
                                           Goedecker et al., PRB 54, 1703 (1996)
                                          Hartwigsen et al., PRB 58, 3641 (1998)
                                                      Krack, TCA 114, 145 (2005)

       Gaussian exponent of the core charge distribution:              12.500000
       Electronic configuration (s p d ...):                                   1

       Parameters of the local part of the GTH pseudopotential:

                          rloc        C1          C2          C3          C4
                        0.200000   -4.178900    0.724463

  6. Atomic kind: C                                     Number of atoms:       3

     Orbital Basis Set                                        DZVP-MOLOPT-GTH-q4

       Number of orbital shell sets:                                           1
       Number of orbital shells:                                               5
       Number of primitive Cartesian functions:                                7
       Number of Cartesian basis functions:                                   14
       Number of spherical basis functions:                                   13
       Norm type:                                                              2

       Normalised Cartesian orbitals:

                        Set   Shell   Orbital            Exponent    Coefficient

                          1       1    2s                6.132625      -0.263661
                                                         2.625196      -0.231112
                                                         1.045457       0.042712
                                                         0.478316       0.306085
                                                         0.178617       0.065483
                                                         0.075145       0.000568
                                                         0.030287       0.000417

                          1       2    3s                6.132625       0.131937
                                                         2.625196       0.414269
                                                         1.045457      -0.593590
                                                         0.478316       0.644922
                                                         0.178617       0.069203
                                                         0.075145      -0.145101
                                                         0.030287       0.008247

                          1       3    3px               6.132625       0.562677
                                                         2.625196       0.633910
                                                         1.045457       0.379157
                                                         0.478316       0.235193
                                                         0.178617       0.052379
                                                         0.075145       0.003677
                                                         0.030287       0.000105
                          1       3    3py               6.132625       0.562677
                                                         2.625196       0.633910
                                                         1.045457       0.379157
                                                         0.478316       0.235193
                                                         0.178617       0.052379
                                                         0.075145       0.003677
                                                         0.030287       0.000105
                          1       3    3pz               6.132625       0.562677
                                                         2.625196       0.633910
                                                         1.045457       0.379157
                                                         0.478316       0.235193
                                                         0.178617       0.052379
                                                         0.075145       0.003677
                                                         0.030287       0.000105

                          1       4    4px               6.132625      -0.472364
                                                         2.625196      -0.221326
                                                         1.045457      -0.481781
                                                         0.478316       0.135466
                                                         0.178617       0.072281
                                                         0.075145       0.024920
                                                         0.030287       0.002706
                          1       4    4py               6.132625      -0.472364
                                                         2.625196      -0.221326
                                                         1.045457      -0.481781
                                                         0.478316       0.135466
                                                         0.178617       0.072281
                                                         0.075145       0.024920
                                                         0.030287       0.002706
                          1       4    4pz               6.132625      -0.472364
                                                         2.625196      -0.221326
                                                         1.045457      -0.481781
                                                         0.478316       0.135466
                                                         0.178617       0.072281
                                                         0.075145       0.024920
                                                         0.030287       0.002706

                          1       5    4dx2              6.132625       0.874783
                                                         2.625196       0.375772
                                                         1.045457       0.653959
                                                         0.478316       0.191007
                                                         0.178617       0.018656
                                                         0.075145       0.003649
                                                         0.030287      -0.000011
                          1       5    4dxy              6.132625       1.515169
                                                         2.625196       0.650856
                                                         1.045457       1.132690
                                                         0.478316       0.330834
                                                         0.178617       0.032314
                                                         0.075145       0.006321
                                                         0.030287      -0.000019
                          1       5    4dxz              6.132625       1.515169
                                                         2.625196       0.650856
                                                         1.045457       1.132690
                                                         0.478316       0.330834
                                                         0.178617       0.032314
                                                         0.075145       0.006321
                                                         0.030287      -0.000019
                          1       5    4dy2              6.132625       0.874783
                                                         2.625196       0.375772
                                                         1.045457       0.653959
                                                         0.478316       0.191007
                                                         0.178617       0.018656
                                                         0.075145       0.003649
                                                         0.030287      -0.000011
                          1       5    4dyz              6.132625       1.515169
                                                         2.625196       0.650856
                                                         1.045457       1.132690
                                                         0.478316       0.330834
                                                         0.178617       0.032314
                                                         0.075145       0.006321
                                                         0.030287      -0.000019
                          1       5    4dz2              6.132625       0.874783
                                                         2.625196       0.375772
                                                         1.045457       0.653959
                                                         0.478316       0.191007
                                                         0.178617       0.018656
                                                         0.075145       0.003649
                                                         0.030287      -0.000011

       Atomic covalent radius [Angstrom]:                                  0.770

       Atomic van der Waals radius [Angstrom]:                             1.700

     GTH Potential information for                                    GTH-PBE-q4

       Description:                       Goedecker-Teter-Hutter pseudopotential
                                           Goedecker et al., PRB 54, 1703 (1996)
                                          Hartwigsen et al., PRB 58, 3641 (1998)
                                                      Krack, TCA 114, 145 (2005)

       Gaussian exponent of the core charge distribution:               4.364419
       Electronic configuration (s p d ...):                               2   2

       Parameters of the local part of the GTH pseudopotential:

                          rloc        C1          C2          C3          C4
                        0.338471   -8.803674    1.339211

       Parameters of the non-local part of the GTH pseudopotential:

                   l      r(l)      h(i,j,l)

                   0    0.302576    9.622487
                   1    0.291507


 MOLECULE KIND INFORMATION


 All atoms are their own molecule, skipping detailed information


 TOTAL NUMBERS AND MAXIMUM NUMBERS

  Total number of            - Atomic kinds:                                   6
                             - Atoms:                                        178
                             - Shell sets:                                   178
                             - Shells:                                       612
                             - Primitive Cartesian functions:                908
                             - Cartesian basis functions:                   2096
                             - Spherical basis functions:                   1862

  Maximum angular momentum of- Orbital basis functions:                        3
                             - Local part of the GTH pseudopotential:          2
                             - Non-local part of the GTH pseudopotential:      4


 MODULE QUICKSTEP: ATOMIC COORDINATES IN ANGSTROM

   Atom Kind Element         X             Y             Z       Z(eff)     Mass
      1    1 Au   79      0.000000      0.000000      0.000000  11.0000 196.9666
      2    1 Au   79      0.000000      2.955000      0.000000  11.0000 196.9666
      3    1 Au   79      0.000000      5.911000      0.000000  11.0000 196.9666
      4    1 Au   79      2.956000      0.000000      0.000000  11.0000 196.9666
      5    1 Au   79      2.956000      2.955000      0.000000  11.0000 196.9666
      6    1 Au   79      2.956000      5.911000      0.000000  11.0000 196.9666
      7    1 Au   79      5.912000      0.000000      0.000000  11.0000 196.9666
      8    1 Au   79      5.912000      2.955000      0.000000  11.0000 196.9666
      9    1 Au   79      5.912000      5.911000      0.000000  11.0000 196.9666
     10    1 Au   79      8.670000      0.000000      0.000000  11.0000 196.9666
     11    1 Au   79      8.670000      2.955000      0.000000  11.0000 196.9666
     12    1 Au   79      8.670000      5.911000      0.000000  11.0000 196.9666
     13    1 Au   79     11.626000      0.000000      0.000000  11.0000 196.9666
     14    1 Au   79     11.626000      2.955000      0.000000  11.0000 196.9666
     15    1 Au   79     11.626000      5.911000      0.000000  11.0000 196.9666
     16    1 Au   79      1.478000      1.478000      2.090000  11.0000 196.9666
     17    1 Au   79      1.478000      4.433000      2.090000  11.0000 196.9666
     18    1 Au   79      1.478000      7.389000      2.090000  11.0000 196.9666
     19    1 Au   79      4.434000      1.478000      2.090000  11.0000 196.9666
     20    1 Au   79      4.434000      4.433000      2.090000  11.0000 196.9666
     21    1 Au   79      4.434000      7.389000      2.090000  11.0000 196.9666
     22    1 Au   79      7.192000      1.478000      2.090000  11.0000 196.9666
     23    1 Au   79      7.192000      4.433000      2.090000  11.0000 196.9666
     24    1 Au   79      7.192000      7.389000      2.090000  11.0000 196.9666
     25    1 Au   79     10.148000      1.478000      2.090000  11.0000 196.9666
     26    1 Au   79     10.148000      4.433000      2.090000  11.0000 196.9666
     27    1 Au   79     10.148000      7.389000      2.090000  11.0000 196.9666
     28    1 Au   79     13.104000      1.478000      2.090000  11.0000 196.9666
     29    1 Au   79     13.104000      4.433000      2.090000  11.0000 196.9666
     30    1 Au   79     13.104000      7.389000      2.090000  11.0000 196.9666
     31    1 Au   79      0.000000      0.000000      4.180000  11.0000 196.9666
     32    1 Au   79      0.000000      2.955000      4.180000  11.0000 196.9666
     33    1 Au   79      0.000000      5.911000      4.180000  11.0000 196.9666
     34    1 Au   79      2.956000      0.000000      4.180000  11.0000 196.9666
     35    1 Au   79      2.956000      2.955000      4.180000  11.0000 196.9666
     36    1 Au   79      2.956000      5.911000      4.180000  11.0000 196.9666
     37    1 Au   79      5.912000      0.000000      4.180000  11.0000 196.9666
     38    1 Au   79      5.912000      2.955000      4.180000  11.0000 196.9666
     39    1 Au   79      5.912000      5.911000      4.180000  11.0000 196.9666
     40    1 Au   79      8.670000      0.000000      4.180000  11.0000 196.9666
     41    1 Au   79      8.670000      2.955000      4.180000  11.0000 196.9666
     42    1 Au   79      8.670000      5.911000      4.180000  11.0000 196.9666
     43    1 Au   79     11.626000      0.000000      4.180000  11.0000 196.9666
     44    1 Au   79     11.626000      2.955000      4.180000  11.0000 196.9666
     45    1 Au   79     11.626000      5.911000      4.180000  11.0000 196.9666
     46    1 Au   79      1.478000      1.478000      6.270000  11.0000 196.9666
     47    1 Au   79      1.478000      4.433000      6.270000  11.0000 196.9666
     48    1 Au   79      1.478000      7.389000      6.270000  11.0000 196.9666
     49    1 Au   79      4.434000      1.478000      6.270000  11.0000 196.9666
     50    1 Au   79      4.434000      4.433000      6.270000  11.0000 196.9666
     51    1 Au   79      4.434000      7.389000      6.270000  11.0000 196.9666
     52    1 Au   79      7.192000      1.478000      6.270000  11.0000 196.9666
     53    1 Au   79      7.192000      4.433000      6.270000  11.0000 196.9666
     54    1 Au   79      7.192000      7.389000      6.270000  11.0000 196.9666
     55    1 Au   79     10.148000      1.478000      6.270000  11.0000 196.9666
     56    1 Au   79     10.148000      4.433000      6.270000  11.0000 196.9666
     57    1 Au   79     10.148000      7.389000      6.270000  11.0000 196.9666
     58    1 Au   79     13.104000      1.478000      6.270000  11.0000 196.9666
     59    1 Au   79     13.104000      4.433000      6.270000  11.0000 196.9666
     60    1 Au   79     13.104000      7.389000      6.270000  11.0000 196.9666
     61    2 Au   79      0.000000      0.000000      8.360000  11.0000 196.9666
     62    2 Au   79      0.000000      2.955000      8.360000  11.0000 196.9666
     63    2 Au   79      0.000000      5.911000      8.360000  11.0000 196.9666
     64    2 Au   79      2.956000      0.000000      8.360000  11.0000 196.9666
     65    2 Au   79      2.956000      2.955000      8.360000  11.0000 196.9666
     66    2 Au   79      2.956000      5.911000      8.360000  11.0000 196.9666
     67    2 Au   79      5.912000      0.000000      8.360000  11.0000 196.9666
     68    2 Au   79      5.912000      2.955000      8.360000  11.0000 196.9666
     69    2 Au   79      5.912000      5.911000      8.360000  11.0000 196.9666
     70    2 Au   79      8.670000      0.000000      8.360000  11.0000 196.9666
     71    2 Au   79      8.670000      2.955000      8.360000  11.0000 196.9666
     72    2 Au   79      8.670000      5.911000      8.360000  11.0000 196.9666
     73    2 Au   79     11.626000      0.000000      8.360000  11.0000 196.9666
     74    2 Au   79     11.626000      2.955000      8.360000  11.0000 196.9666
     75    2 Au   79     11.626000      5.911000      8.360000  11.0000 196.9666
     76    3 Au   79      1.478000      1.478000     10.450000  11.0000 196.9666
     77    3 Au   79      1.478000      4.433000     10.450000  11.0000 196.9666
     78    3 Au   79      1.478000      7.389000     10.450000  11.0000 196.9666
     79    3 Au   79      4.434000      1.478000     10.450000  11.0000 196.9666
     80    3 Au   79      4.434000      4.433000     10.450000  11.0000 196.9666
     81    3 Au   79      4.434000      7.389000     10.450000  11.0000 196.9666
     82    3 Au   79      7.192000      1.478000     10.450000  11.0000 196.9666
     83    3 Au   79      7.192000      4.433000     10.450000  11.0000 196.9666
     84    3 Au   79      7.192000      7.389000     10.450000  11.0000 196.9666
     85    3 Au   79     10.148000      1.478000     10.450000  11.0000 196.9666
     86    3 Au   79     10.148000      4.433000     10.450000  11.0000 196.9666
     87    3 Au   79     10.148000      7.389000     10.450000  11.0000 196.9666
     88    3 Au   79     13.104000      1.478000     10.450000  11.0000 196.9666
     89    3 Au   79     13.104000      4.433000     10.450000  11.0000 196.9666
     90    3 Au   79     13.104000      7.389000     10.450000  11.0000 196.9666
     91    4 N     7      4.855400      5.911900     12.031800   5.0000  14.0067
     92    4 N     7      9.528000      5.913700     12.034000   5.0000  14.0067
     93    4 N     7      7.192000      5.934000     12.040000   5.0000  14.0067
     94    5 H     1      4.067334      5.905999     12.687741   1.0000   1.0079
     95    5 H     1     10.318905      5.908779     12.685747   1.0000   1.0079
     96    6 C     6      8.373871      5.917978     12.731457   4.0000  12.0107
     97    6 C     6      5.998955      5.915256     12.792642   4.0000  12.0107
     98    4 N     7      8.322753      5.905154     14.080498   5.0000  14.0067
     99    4 N     7      5.934429      5.898160     14.101750   5.0000  14.0067
    100    6 C     6      7.103965      5.889941     14.828703   4.0000  12.0107
    101    4 N     7      7.241602      5.865770     16.106467   5.0000  14.0067
    102    5 H     1      9.174357      5.887630     14.641018   1.0000   1.0079
    103    5 H     1      7.267300      6.719500     16.742000   1.0000   1.0079
    104    2 Au   79      1.478000      1.478000     25.082000  11.0000 196.9666
    105    2 Au   79      1.478000      4.433000     25.082000  11.0000 196.9666
    106    2 Au   79      1.478000      7.389000     25.082000  11.0000 196.9666
    107    2 Au   79      4.434000      1.478000     25.082000  11.0000 196.9666
    108    2 Au   79      4.434000      4.433000     25.082000  11.0000 196.9666
    109    2 Au   79      4.434000      7.389000     25.082000  11.0000 196.9666
    110    2 Au   79      7.192000      1.478000     25.082000  11.0000 196.9666
    111    2 Au   79      7.192000      4.433000     25.082000  11.0000 196.9666
    112    2 Au   79      7.192000      7.389000     25.082000  11.0000 196.9666
    113    2 Au   79     10.148000      1.478000     25.082000  11.0000 196.9666
    114    2 Au   79     10.148000      4.433000     25.082000  11.0000 196.9666
    115    2 Au   79     10.148000      7.389000     25.082000  11.0000 196.9666
    116    2 Au   79     13.104000      1.478000     25.082000  11.0000 196.9666
    117    2 Au   79     13.104000      4.433000     25.082000  11.0000 196.9666
    118    2 Au   79     13.104000      7.389000     25.082000  11.0000 196.9666
    119    1 Au   79      0.000000      0.000000     27.172000  11.0000 196.9666
    120    1 Au   79      0.000000      2.955000     27.172000  11.0000 196.9666
    121    1 Au   79      0.000000      5.911000     27.172000  11.0000 196.9666
    122    1 Au   79      2.956000      0.000000     27.172000  11.0000 196.9666
    123    1 Au   79      2.956000      2.955000     27.172000  11.0000 196.9666
    124    1 Au   79      2.956000      5.911000     27.172000  11.0000 196.9666
    125    1 Au   79      5.912000      0.000000     27.172000  11.0000 196.9666
    126    1 Au   79      5.912000      2.955000     27.172000  11.0000 196.9666
    127    1 Au   79      5.912000      5.911000     27.172000  11.0000 196.9666
    128    1 Au   79      8.670000      0.000000     27.172000  11.0000 196.9666
    129    1 Au   79      8.670000      2.955000     27.172000  11.0000 196.9666
    130    1 Au   79      8.670000      5.911000     27.172000  11.0000 196.9666
    131    1 Au   79     11.626000      0.000000     27.172000  11.0000 196.9666
    132    1 Au   79     11.626000      2.955000     27.172000  11.0000 196.9666
    133    1 Au   79     11.626000      5.911000     27.172000  11.0000 196.9666
    134    1 Au   79      1.478000      1.478000     29.262000  11.0000 196.9666
    135    1 Au   79      1.478000      4.433000     29.262000  11.0000 196.9666
    136    1 Au   79      1.478000      7.389000     29.262000  11.0000 196.9666
    137    1 Au   79      4.434000      1.478000     29.262000  11.0000 196.9666
    138    1 Au   79      4.434000      4.433000     29.262000  11.0000 196.9666
    139    1 Au   79      4.434000      7.389000     29.262000  11.0000 196.9666
    140    1 Au   79      7.192000      1.478000     29.262000  11.0000 196.9666
    141    1 Au   79      7.192000      4.433000     29.262000  11.0000 196.9666
    142    1 Au   79      7.192000      7.389000     29.262000  11.0000 196.9666
    143    1 Au   79     10.148000      1.478000     29.262000  11.0000 196.9666
    144    1 Au   79     10.148000      4.433000     29.262000  11.0000 196.9666
    145    1 Au   79     10.148000      7.389000     29.262000  11.0000 196.9666
    146    1 Au   79     13.104000      1.478000     29.262000  11.0000 196.9666
    147    1 Au   79     13.104000      4.433000     29.262000  11.0000 196.9666
    148    1 Au   79     13.104000      7.389000     29.262000  11.0000 196.9666
    149    1 Au   79      0.000000      0.000000     31.352000  11.0000 196.9666
    150    1 Au   79      0.000000      2.955000     31.352000  11.0000 196.9666
    151    1 Au   79      0.000000      5.911000     31.352000  11.0000 196.9666
    152    1 Au   79      2.956000      0.000000     31.352000  11.0000 196.9666
    153    1 Au   79      2.956000      2.955000     31.352000  11.0000 196.9666
    154    1 Au   79      2.956000      5.911000     31.352000  11.0000 196.9666
[...]
      77     Au       3         10.732736                              0.267264
      78     Au       3         10.732108                              0.267892
      79     Au       3         10.694655                              0.305345
      80     Au       3         10.613799                              0.386201
      81     Au       3         10.612919                              0.387081
      82     Au       3         10.690300                              0.309700
      83     Au       3         10.591985                              0.408015
      84     Au       3         10.592574                              0.407426
      85     Au       3         10.719156                              0.280844
      86     Au       3         10.644528                              0.355472
      87     Au       3         10.643700                              0.356300
      88     Au       3         10.726653                              0.273347
      89     Au       3         10.731954                              0.268046
      90     Au       3         10.731484                              0.268516
      91     N        4          5.303267                             -0.303267
      92     N        4          5.310780                             -0.310780
      93     N        4          5.274410                             -0.274410
      94     H        5          0.843420                              0.156580
      95     H        5          0.867272                              0.132728
      96     C        6          3.829716                              0.170284
      97     C        6          3.831136                              0.168864
      98     N        4          4.963322                              0.036678
      99     N        4          5.147719                             -0.147719
     100     C        6          3.904595                              0.095405
     101     N        4          5.328140                             -0.328140
     102     H        5          0.847105                              0.152895
     103     H        5          0.850940                              0.149060
     104     Au       2         11.010764                             -0.010764
     105     Au       2         11.010860                             -0.010860
     106     Au       2         11.010857                             -0.010857
     107     Au       2         11.006836                             -0.006836
     108     Au       2         11.006762                             -0.006762
     109     Au       2         11.006962                             -0.006962
     110     Au       2         10.992967                              0.007033
     111     Au       2         10.992862                              0.007138
     112     Au       2         10.993203                              0.006797
     113     Au       2         11.014229                             -0.014229
     114     Au       2         11.014238                             -0.014238
     115     Au       2         11.014440                             -0.014440
     116     Au       2         11.004496                             -0.004496
     117     Au       2         11.004637                             -0.004637
     118     Au       2         11.004628                             -0.004628
     119     Au       1         11.009723                             -0.009723
     120     Au       1         11.009814                             -0.009814
     121     Au       1         11.010019                             -0.010019
     122     Au       1         11.019595                             -0.019595
     123     Au       1         11.019695                             -0.019695
     124     Au       1         11.019879                             -0.019879
     125     Au       1         10.972439                              0.027561
     126     Au       1         10.972534                              0.027466
     127     Au       1         10.972810                              0.027190
     128     Au       1         11.008826                             -0.008826
     129     Au       1         11.008911                             -0.008911
     130     Au       1         11.009096                             -0.009096
     131     Au       1         11.017361                             -0.017361
     132     Au       1         11.017457                             -0.017457
     133     Au       1         11.017649                             -0.017649
     134     Au       1         11.003035                             -0.003035
     135     Au       1         11.003313                             -0.003313
     136     Au       1         11.003109                             -0.003109
     137     Au       1         11.000959                             -0.000959
     138     Au       1         11.001195                             -0.001195
     139     Au       1         11.001013                             -0.001013
     140     Au       1         10.963982                              0.036018
     141     Au       1         10.964313                              0.035687
     142     Au       1         10.964033                              0.035967
     143     Au       1         11.009695                             -0.009695
     144     Au       1         11.009960                             -0.009960
     145     Au       1         11.009775                             -0.009775
     146     Au       1         10.996458                              0.003542
     147     Au       1         10.996737                              0.003263
     148     Au       1         10.996531                              0.003469
     149     Au       1         11.000770                             -0.000770
     150     Au       1         11.000837                             -0.000837
     151     Au       1         11.001047                             -0.001047
     152     Au       1         11.014205                             -0.014205
     153     Au       1         11.014278                             -0.014278
     154     Au       1         11.014471                             -0.014471
     155     Au       1         10.969908                              0.030092
     156     Au       1         10.969951                              0.030049
     157     Au       1         10.970242                              0.029758
     158     Au       1         11.006376                             -0.006376
     159     Au       1         11.006426                             -0.006426
     160     Au       1         11.006615                             -0.006615
     161     Au       1         11.007035                             -0.007035
     162     Au       1         11.007107                             -0.007107
     163     Au       1         11.007314                             -0.007314
     164     Au       1         11.007227                             -0.007227
     165     Au       1         11.007505                             -0.007505
     166     Au       1         11.007297                             -0.007297
     167     Au       1         11.006629                             -0.006629
     168     Au       1         11.006869                             -0.006869
     169     Au       1         11.006680                             -0.006680
     170     Au       1         10.970199                              0.029801
     171     Au       1         10.970533                              0.029467
     172     Au       1         10.970240                              0.029760
     173     Au       1         11.014400                             -0.014400
     174     Au       1         11.014667                             -0.014667
     175     Au       1         11.014472                             -0.014472
     176     Au       1         11.000968                             -0.000968
     177     Au       1         11.001246                             -0.001246
     178     Au       1         11.001036                             -0.001036
 # Total charge                           1860.988780                  0.011220

 !-----------------------------------------------------------------------------!

 ENERGY| Total FORCE_EVAL ( QS ) energy [a.u.]:            -5563.450835632496819

 -------------------------------------------------------------------------------
 -                                                                             -
 -                                DBCSR STATISTICS                             -
 -                                                                             -
 -------------------------------------------------------------------------------
 COUNTER                                    TOTAL       BLAS       SMM       ACC
 flops inhomo. stacks                           0       0.0%      0.0%      0.0%
 flops total                         0.000000E+00       0.0%      0.0%      0.0%
 flops max/rank                      0.000000E+00       0.0%      0.0%      0.0%
 matmuls inhomo. stacks                         0       0.0%      0.0%      0.0%
 matmuls total                                  0       0.0%      0.0%      0.0%
 number of processed stacks                     0       0.0%      0.0%      0.0%
 average stack size                                     0.0       0.0       0.0
 marketing flops                     0.000000E+00
 -------------------------------------------------------------------------------
 -                                                                             -
 -                      DBCSR MESSAGE PASSING PERFORMANCE                      -
 -                                                                             -
 -------------------------------------------------------------------------------
 ROUTINE             CALLS      AVE VOLUME [Bytes]
 MP_Bcast                1                     12.
 MP_Allreduce         3450                      8.
 MP_Alltoall          1260                 220039.
 -------------------------------------------------------------------------------

 -------------------------------------------------------------------------------
 -                                                                             -
 -                                DBM STATISTICS                               -
 -                                                                             -
 -------------------------------------------------------------------------------
    M  x    N  x    K                                          COUNT     PERCENT
 -------------------------------------------------------------------------------

 -------------------------------------------------------------------------------
 -                                                                             -
 -                                GRID STATISTICS                              -
 -                                                                             -
 -------------------------------------------------------------------------------
 LP    KERNEL             BACKEND                              COUNT     PERCENT
 4     collocate ortho    REF                                6893800      40.05%
 4     integrate ortho    REF                                6755924      39.25%
 5     collocate ortho    REF                                1069100       6.21%
 5     integrate ortho    REF                                1047718       6.09%
 0     collocate general  REF                                 410112       2.38%
 0     integrate general  REF                                 364544       2.12%
 6     collocate ortho    REF                                 195900       1.14%
 6     integrate ortho    REF                                 191982       1.12%
 3     collocate ortho    REF                                 131950       0.77%
 3     integrate ortho    REF                                 129311       0.75%
 2     collocate ortho    REF                                  12100       0.07%
 2     integrate ortho    REF                                  11858       0.07%
 -------------------------------------------------------------------------------

 MEMORY| Estimated peak process memory [MiB]                                1000

 -------------------------------------------------------------------------------
 ----                             MULTIGRID INFO                            ----
 -------------------------------------------------------------------------------
 count for grid        1:        7482909          cutoff [a.u.]          300.00
 count for grid        2:        8250626          cutoff [a.u.]          100.00
 count for grid        3:        4219265          cutoff [a.u.]           33.33
 count for grid        4:        3406865          cutoff [a.u.]           11.11
 total gridlevel count  :       23359665

 -------------------------------------------------------------------------------
 -                                                                             -
 -                         MESSAGE PASSING PERFORMANCE                         -
 -                                                                             -
 -------------------------------------------------------------------------------

 ROUTINE             CALLS      AVE VOLUME [Bytes]
 MP_Group                5
 MP_Bcast            13073                 101527.
 MP_Allreduce         2818                   1182.
 MP_Sync               598
 MP_Alltoall          1593              332473934.
 MP_ISendRecv        50490                  13020.
 MP_Wait             60881
 MP_ISend            20855                  59771.
 MP_IRecv            21301                  58530.
 MP_Recv              6090                 476672.
 MP_Write_All            2                  13904.
 -------------------------------------------------------------------------------


 -------------------------------------------------------------------------------
 -                                                                             -
 -                           R E F E R E N C E S                               -
 -                                                                             -
 -------------------------------------------------------------------------------
 
 CP2K version 2022.1 (Development Version), the CP2K developers group (2022).
 CP2K is freely available from https://www.cp2k.org/ .

 Kuehne,Thomas D.; Iannuzzi,Marcella; Del Ben,Mauro;
 Rybkin,Vladimir V.; Seewald,Patrick; Stein,Frederick; Laino,Teodoro;
 Khaliullin,Rustam Z.; Schuett,Ole; Schiffmann,Florian; Golze,Dorothea;
 Wilhelm,Jan; Chulkov,Sergey; Bani-Hashemian,Mohammad Hossein;
 Weber,Valery; Borstnik,Urban; Taillefumier,Mathieu;
 Jakobovits,Alice Shoshana; Lazzaro,Alfio; Pabst,Hans; Mueller,Tiziano;
 Schade,Robert; Guidon,Manuel; Andermatt,Samuel; Holmberg,Nico;
 Schenter,Gregory K.; Hehn,Anna; Bussy,Augustin; Belleflamme,Fabian;
 Tabacchi,Gloria; Gloess,Andreas; Lass,Michael; Bethune,Iain;
 Mundy,Christopher J.; Plessl,Christian; Watkins,Matt;
 VandeVondele,Joost; Krack,Matthias; Hutter,Juerg. 
 The Journal of Chemical Physics, 152 (19), (2020). 
 CP2K: An electronic structure and molecular dynamics software package -
 Quickstep: Efficient and accurate electronic structure calculations.
 https://doi.org/10.1063/5.0007045

 Schuett, Ole; Messmer, Peter; Hutter, Juerg; VandeVondele, Joost. 
 Electronic Structure Calculations on Graphics Processing Units, John
 Wiley & Sons, Ltd, 173-190 (2016). 
 GPU-Accelerated Sparse Matrix-Matrix Multiplication for
 Linear Scaling Density Functional Theory.
 https://doi.org/10.1002/9781118670712.ch8

 Heinecke, A; Henry, G; Hutchinson, M; Pabst, H. 
 Proceedings of Intl. Supercomputing Conference, 981-991 (2016). 
 LIBXSMM: Accelerating Small Matrix Multiplications
 by Runtime Code Generation.
 https://doi.org/10.1109/SC.2016.83

 Borstnik, U; VandeVondele, J; Weber, V; Hutter, J. 
 PARALLEL COMPUTING, 40 (5-6), 47-58 (2014). 
 Sparse matrix multiplication: The distributed block-compressed sparse
 row library.
 https://doi.org/10.1016/j.parco.2014.03.012

 Hutter, J; Iannuzzi, M; Schiffmann, F; VandeVondele, J. 
 WIREs Comput Mol Sci., 4 (1), 15-25 (2014). 
 CP2K: atomistic simulations of condensed matter systems.
 https://doi.org/10.1002/wcms.1159

 VandeVondele, J; Hutter, J. 
 JOURNAL OF CHEMICAL PHYSICS, 127 (11), 114105 (2007). 
 Gaussian basis sets for accurate calculations on molecular systems in
 gas and condensed phases.
 https://doi.org/10.1063/1.2770708

 Krack, M. 
 THEORETICAL CHEMISTRY ACCOUNTS, 114 (1-3), 145-152 (2005). 
 Pseudopotentials for H to Kr optimized for gradient-corrected
 exchange-correlation functionals.
 https://doi.org/10.1007/s00214-005-0655-y

 VandeVondele, J; Krack, M; Mohamed, F; Parrinello, M; Chassaing, T;
 Hutter, J. COMPUTER PHYSICS COMMUNICATIONS, 167 (2), 103-128 (2005). 
 QUICKSTEP: Fast and accurate density functional calculations using a
 mixed Gaussian and plane waves approach.
 https://doi.org/10.1016/j.cpc.2004.12.014

 Frigo, M; Johnson, SG. 
 PROCEEDINGS OF THE IEEE, 93 (2), 216-231 (2005). 
 The design and implementation of FFTW3.
 https://doi.org/10.1109/JPROC.2004.840301

 Hartwigsen, C; Goedecker, S; Hutter, J. 
 PHYSICAL REVIEW B, 58 (7), 3641-3662 (1998). 
 Relativistic separable dual-space Gaussian pseudopotentials from H to Rn.
 https://doi.org/10.1103/PhysRevB.58.3641

 Lippert, G; Hutter, J; Parrinello, M. 
 MOLECULAR PHYSICS, 92 (3), 477-487 (1997). 
 A hybrid Gaussian and plane wave density functional scheme.
 https://doi.org/10.1080/002689797170220

 Perdew, JP; Burke, K; Ernzerhof, M. 
 PHYSICAL REVIEW LETTERS, 77 (18), 3865-3868 (1996). 
 Generalized gradient approximation made simple.
 https://doi.org/10.1103/PhysRevLett.77.3865

 Goedecker, S; Teter, M; Hutter, J. 
 PHYSICAL REVIEW B, 54 (3), 1703-1710 (1996). 
 Separable dual-space Gaussian pseudopotentials.
 https://doi.org/10.1103/PhysRevB.54.1703


 -------------------------------------------------------------------------------
 -                                                                             -
 -                                T I M I N G                                  -
 -                                                                             -
 -------------------------------------------------------------------------------
 SUBROUTINE                       CALLS  ASD         SELF TIME        TOTAL TIME
                                MAXIMUM       AVERAGE  MAXIMUM  AVERAGE  MAXIMUM
 CP2K                                 1  1.0    0.052    0.055 1051.637 1051.648
 qs_energies                          1  2.0    0.000    0.000 1051.402 1051.413
 scf_env_do_scf                       1  3.0    0.000    0.000 1041.560 1041.575
 scf_env_do_scf_inner_loop           49  4.0    0.003    0.007 1041.559 1041.574
 run_smeagol_emtrans                 50  5.9 1028.789 1029.397 1030.694 1030.713
 qs_scf_new_mos_kp                   49  5.0    0.000    0.000 1024.429 1024.448
 -------------------------------------------------------------------------------

 The number of warnings for this run is : 2
 
 -------------------------------------------------------------------------------
  **** **** ******  **  PROGRAM ENDED AT                 2024-01-15 21:28:33.248
 ***** ** ***  *** **   PROGRAM RAN ON                               hx1-c07-1-1
 **    ****   ******    PROGRAM RAN BY                                    cahart
 ***** **    ** ** **   PROGRAM PROCESS ID                                136988
  **** **  *******  **  PROGRAM STOPPED IN /gpfs/home/cahart/transport/melamine/
                                           au_from-h2/iv-curve/single-point/ts2-
                                           guess-notip/iv_curve/V_-1.0
