SIESTA 1.3.7  -- [1.3f1 release] (04 Feb 2004)
Architecture  : mpif90
Compiler flags:  -O2 -openmp 
PARALLEL version

* Running on    8 nodes in parallel
 OMP_NUM_THREADS environment variable=1                                        0
 MKL_NUM_THREADS environment variable=1                                        0
 OMP_NUM_THREADS environment variable=1                                        1
 MKL_NUM_THREADS environment variable=1                                        1
 Maximum number of Threads, node index:           1           1
 Maximum number of Threads, node index:           1           0
 Maximum number of Threads, node index:           1           3
 Maximum number of Threads, node index:           1           7
 Maximum number of Threads, node index:           1           4
 Maximum number of Threads, node index:           1           2
 Maximum number of Threads, node index:           1           5
 Maximum number of Threads, node index:           1           6
 In parallel region?  F
 Number of Threads in parallel region           1
 Node index, Thread index           0           0
>> Start of run:  26-AUG-2013   0:52:09

                           ***********************       
                           *  WELCOME TO SIESTA  *       
                           ***********************       

reinit: Reading from standard input
************************** Dump of input data file ****************************
SystemName  C3 molecule
SystemLabel AuC3Au
#********************************************************
# Specification of atomic species and positions
#********************************************************
# Chemical species
NumberOfSpecies 2
%block ChemicalSpeciesLabel
 1 79 Au
 2  6 C
%endblock ChemicalSpeciesLabel
# UNIT CELL
LatticeConstant       1.0 Ang
%block LatticeVectors
   4.3289600000 -7.4979700000  0.0000000000
   4.3289600000  7.4979700000  0.0000000000
   0.0000000000  0.0000000000  25.1655400000
%endblock LatticeVectors
# ATOMIC POSITIONS
NumberOfAtoms    75
AtomicCoordinatesFormat Ang
%block AtomicCoordinatesAndAtomicSpecies
   1.4429860000  0.8331080000  0.0000000000 1
   2.8859710000 -1.6662140000  0.0000000000 1
   4.3289560000 -4.1655360000  0.0000000000 1
   2.8859710000  3.3324300000  0.0000000000 1
   4.3289560000  0.8331080000  0.0000000000 1
   5.7719410000 -1.6662140000  0.0000000000 1
   4.3289560000  5.8317520000  0.0000000000 1
   5.7719410000  3.3324300000  0.0000000000 1
   7.2149260000  0.8331080000  0.0000000000 1
   1.4429860000 -0.8331080000  2.3563860000 1
   2.8859710000 -3.3324300000  2.3563860000 1
   4.3289560000 -5.8317520000  2.3563860000 1
   2.8859710000  1.6662140000  2.3563860000 1
   4.3289560000 -0.8331080000  2.3563860000 1
   5.7719410000 -3.3324300000  2.3563860000 1
   4.3289560000  4.1655360000  2.3563860000 1
   5.7719410000  1.6662140000  2.3563860000 1
   7.2149260000 -0.8331080000  2.3563860000 1
   1.4429860000  0.8331080000  4.7127720000 1
   2.8859710000 -1.6662140000  4.7127720000 1
   4.3289560000 -4.1655360000  4.7127720000 1
   2.8859710000  3.3324300000  4.7127720000 1
   4.3289560000  0.8331080000  4.7127720000 1
   5.7719410000 -1.6662140000  4.7127720000 1
   4.3289560000  5.8317520000  4.7127720000 1
   5.7719410000  3.3324300000  4.7127720000 1
   7.2149260000  0.8331080000  4.7127720000 1
   1.4429860000 -0.8331080000  7.0691580000 1
   2.8859710000 -3.3324300000  7.0691580000 1
   4.3289560000 -5.8317520000  7.0691580000 1
   2.8859710000  1.6662140000  7.0691580000 1
   4.3289560000 -0.8331080000  7.0691580000 1
   5.7719410000 -3.3324300000  7.0691580000 1
   4.3289560000  4.1655360000  7.0691580000 1
   5.7719410000  1.6662140000  7.0691580000 1
   7.2149260000 -0.8331080000  7.0691580000 1
   4.3289560000  0.8331080000  10.1000000000 2
   4.3289560000  0.8331080000  11.4100000000 2
   4.3289560000  0.8331080000  12.7200000000 2
   1.4429860000 -0.8331080000  15.7400000000 1
   2.8859710000 -3.3324300000  15.7400000000 1
   4.3289560000 -5.8317520000  15.7400000000 1
   2.8859710000  1.6662140000  15.7400000000 1
   4.3289560000 -0.8331080000  15.7400000000 1
   5.7719410000 -3.3324300000  15.7400000000 1
   4.3289560000  4.1655360000  15.7400000000 1
   5.7719410000  1.6662140000  15.7400000000 1
   7.2149260000 -0.8331080000  15.7400000000 1
   0.0000000000  0.0000000000  18.0963870000 1
   1.4429850000 -2.4993220000  18.0963870000 1
   2.8859700000 -4.9986440000  18.0963870000 1
   1.4429850000  2.4993220000  18.0963870000 1
   2.8859700000  0.0000000000  18.0963870000 1
   4.3289550000 -2.4993220000  18.0963870000 1
   2.8859700000  4.9986440000  18.0963870000 1
   4.3289550000  2.4993220000  18.0963870000 1
   5.7719400000  0.0000000000  18.0963870000 1
   1.4429860000  0.8331080000  20.4527680000 1
   2.8859710000 -1.6662140000  20.4527680000 1
   4.3289560000 -4.1655360000  20.4527680000 1
   2.8859710000  3.3324300000  20.4527680000 1
   4.3289560000  0.8331080000  20.4527680000 1
   5.7719410000 -1.6662140000  20.4527680000 1
   4.3289560000  5.8317520000  20.4527680000 1
   5.7719410000  3.3324300000  20.4527680000 1
   7.2149260000  0.8331080000  20.4527680000 1
   1.4429860000 -0.8331080000  22.8091540000 1
   2.8859710000 -3.3324300000  22.8091540000 1
   4.3289560000 -5.8317520000  22.8091540000 1
   2.8859710000  1.6662140000  22.8091540000 1
   4.3289560000 -0.8331080000  22.8091540000 1
   5.7719410000 -3.3324300000  22.8091540000 1
   4.3289560000  4.1655360000  22.8091540000 1
   5.7719410000  1.6662140000  22.8091540000 1
   7.2149260000 -0.8331080000  22.8091540000 1
%endblock AtomicCoordinatesAndAtomicSpecies
#********************************************************
# DFT options
#********************************************************
# Basis set variables
PAO.BasisType split
%block PAO.Basis
  Au  1
n=6  0  1  P 0 E 20 4
  5.5
%endblock PAO.Basis
%block PS.lmax
 Au   1
%endblock PS.lmax
# k-mesh for Brillouin zone integration
%block kgrid_Monkhorst_Pack
  2   0   0     0.0
  0   2   0     0.0
  0   0   1     0.0
%endblock kgrid_Monkhorst_Pack
# General variables
ElectronicTemperature  300 K
MeshCutoff             200. Ry
xc.functional          LDA           # Exchange-correlation functional
xc.authors             CA
SpinPolarized          F
# SCF variables
DM.MixSCF1            T
MaxSCFIterations      1000           # Maximum number of SCF iter
DM.MixingWeight       0.03           # New DM amount for next SCF cycle
DM.Tolerance          2.0d-4         # Tolerance in maximum difference
DM.UseSaveDM          true           # to use continuation files
DM.NumberPulay        5
# Output variables
WriteMullikenPop                0
WriteBands                      F
SaveRho                         T
SaveElectrostaticPotential      T
SaveTotalPotential              F
WriteCoorXmol                   T
WriteMDXmol                     T
#********************************************************
# SMEAGOL options
#********************************************************
# perform a transport calculation
EMTransport               T
# set number of energy points for integrals
NEnergReal               128
NEnergImCircle           16
NEnergImLine             16
NPoles                   16
#set bias range
VInitial                -1.00d0 eV
VFinal                   1.00d0 eV
NIVPoints                8
# General variables
Delta                    1.d-4
EnergLowestBound        -5.0d0 Ry
NSlices                  1
PeriodicTransp           T
InitTransport            T
SaveMemTranspK           F
WriteDMT                 F
# Matching of Hartree potential with the leads
HartreeLeadsBottom     -19.94020653     eV
HartreeLeadsLeft         0.00          Ang
HartreeLeadsRight       25.1655400000  Ang
# print transmission coefficient
TrCoefficients           T
NTransmPoints            400
TransmissionOverK        F
TRCScaleEF               T
InitTransmRange         -4.0  eV
FinalTransmRange         4.0  eV
TransmissionEmbed        F
TRC.EMDOS                T
TRC.EMPDOS               T
TRC.LeadsDOS             T
TRC.LeadsPDOS            F
Sigma.PDOS               F
Sigma.DOSVV              F
# save output for specified bias steps
%block SaveBiasSteps
 0 4 8
%endblock SaveBiasSteps
#Scissor operator options start here
#==================================
Scissor.Operator    F
scissor.operator_first_atom  37
scissor.operator_last_atom   39
shift.occupied.levels   0.0 eV
shift.virtual.levels     0.0 eV
scissor.operator_NumberOfOccupiedStates 12
#===================================
************************** End of input data file *****************************

reinit: -----------------------------------------------------------------------
reinit: System Name: C3 molecule                                                
reinit: -----------------------------------------------------------------------
reinit: System Label: AuC3Au              
reinit: -----------------------------------------------------------------------

initatom: Reading input for the pseudopotentials and atomic orbitals ----------
 Species number:            1  Label: Au Atomic number:          79
 Species number:            2  Label: C Atomic number:           6
Ground state valence configuration:   6s01  5d10
Reading pseudopotential information in formatted form from Au.psf
Semicore shell(s) with ** electrons included in the valence for
Au
Ground state valence configuration:   2s02  2p02
Reading pseudopotential information in formatted form from C.psf
relmxkb: Read Max KB Ang. Momentum=    1 for species Au
For C, standard SIESTA heuristics set lmxkb to 3
 (one more than the basis l, including polarization orbitals).
Use PS.lmax or PS.KBprojectors blocks to override.

<basis_specs>
===============================================================================
Au                   Z=  79    Mass=  196.97        Charge=  0.0000    
Lmxo=0 Lmxkb=1     BasisType=split      Semic=T
L=0  Nsemic=0  Cnfigmx=6
          n=1  nzeta=1  polorb=0
               vcte:    20.000    
               rinn:    4.0000    
                rcs:    5.5000    
            lambdas:    1.0000    
-------------------------------------------------------------------------------
L=0  Nkbl=1  erefs: 0.17977+309
L=1  Nkbl=1  erefs: 0.17977+309
===============================================================================
</basis_specs>

atom: Called for Au  (Z =  79)

read_vps: Pseudopotential generation method:
read_vps: ATM3      Troullier-Martins                       

read_vps: Pseudopotential generated from a relativistic atomic calculation
read_vps: There are spin-orbit pseudopotentials available

read_vps: Valence configuration (pseudopotential and basis set generation):
6s( 1.00) rc: 2.29
6p( 0.00) rc: 2.29
Total valence charge:    1.00000

read_vps: Pseudopotential includes a core correction:
read_vps: Pseudo-core for xc-correction
comcore: Pseudo-core radius Rcore=  7.714087

xc_check: Exchange-correlation functional:
xc_check: Ceperley-Alder
V l=0 = -2*Zval/r beyond r=  6.3158
V l=1 = -2*Zval/r beyond r=  6.3158
All V_l potentials equal beyond r=  2.2661
This should be close to max(r_c) in ps generation
All pots = -2*Zval/r beyond r=  6.3158
Using large-core scheme for Vlocal

atom: Estimated core radius    6.31575
atom: Maximum radius for 4*pi*r*r*local-pseudopot. charge    6.72309
atom: Maximum radius for r*vlocal+2*Zval:    6.39520
GHOST: No ghost state for L =  0
GHOST: No ghost state for L =  1

KBgen: Kleinman-Bylander projectors: 
   l= 0   rc=  2.352642   el= -0.445660   Ekb=  4.785126   kbcos=  0.279017
   l= 1   rc=  2.352642   el= -0.065043   Ekb=  2.856109   kbcos=  0.217743

KBgen: Total number of  Kleinman-Bylander projectors:    4
atom: -------------------------------------------------------------------------

atom: SANKEY-TYPE ORBITALS:

SPLIT: Orbitals with angular momentum L= 0

SPLIT: Basis orbitals for state 6s

   izeta = 1
                 lambda =    1.000000
                     rc =    5.504393
                 energy =   -0.392859
                kinetic =    0.507951
    potential(screened) =   -0.900809
       potential(ionic) =   -0.802802
atom: Total number of Sankey-type orbitals:  1

atm_pop: Valence configuration(local Pseudopot. screening):
 6s( 1.00)                                                            
Vna: chval, zval:    1.00000   1.00000

Vna:  Cut-off radius for the neutral-atom potential:   6.475639
Vna: WARNING: Cut-off radius for the neutral-atom potential, rVna =     6.47564
Vna: WARNING: Cut-off radius for charge density =     5.50439
Vna: WARNING: Check atom: Look for the sentence:
Vna: WARNING: LOCAL NEUTRAL-ATOM PSEUDOPOTENTIAL
Vna: WARNING: Increasing the tolerance parameter EPS
Vna: WARNING: might be a good idea

atom: _________________________________________________________________________

<basis_specs>
===============================================================================
C                    Z=   6    Mass=  12.010        Charge=  0.0000    
Lmxo=1 Lmxkb=3     BasisType=split      Semic=F
L=0  Nsemic=0  Cnfigmx=2
          n=1  nzeta=2  polorb=0
               vcte:    0.0000    
               rinn:    0.0000    
                rcs:    0.0000      0.0000    
            lambdas:    1.0000      1.0000    
L=1  Nsemic=0  Cnfigmx=2
          n=1  nzeta=2  polorb=1
               vcte:    0.0000    
               rinn:    0.0000    
                rcs:    0.0000      0.0000    
            lambdas:    1.0000      1.0000    
-------------------------------------------------------------------------------
L=0  Nkbl=1  erefs: 0.17977+309
L=1  Nkbl=1  erefs: 0.17977+309
L=2  Nkbl=1  erefs: 0.17977+309
L=3  Nkbl=1  erefs: 0.17977+309
===============================================================================
</basis_specs>

atom: Called for C   (Z =   6)

read_vps: Pseudopotential generation method:
read_vps: ATM3      Troullier-Martins                       

read_vps: Valence configuration (pseudopotential and basis set generation):
2s( 2.00) rc: 1.25
2p( 2.00) rc: 1.25
3d( 0.00) rc: 1.25
4f( 0.00) rc: 1.25
read_vps: Spin-orbit interaction is not included in this calculation
Total valence charge:    4.00000

xc_check: Exchange-correlation functional:
xc_check: Ceperley-Alder
V l=0 = -2*Zval/r beyond r=  1.3951
V l=1 = -2*Zval/r beyond r=  1.3777
V l=2 = -2*Zval/r beyond r=  1.3777
V l=3 = -2*Zval/r beyond r=  1.3777
All V_l potentials equal beyond r=  1.2311
This should be close to max(r_c) in ps generation
All pots = -2*Zval/r beyond r=  1.3951

VLOCAL1: 99.0% of the norm of Vloc inside     28.641 Ry
VLOCAL1: 99.9% of the norm of Vloc inside     65.273 Ry
atom: Maximum radius for 4*pi*r*r*local-pseudopot. charge    1.48507
atom: Maximum radius for r*vlocal+2*Zval:    1.27815
GHOST: No ghost state for L =  0
GHOST: No ghost state for L =  1
GHOST: No ghost state for L =  2
GHOST: No ghost state for L =  3

KBgen: Kleinman-Bylander projectors: 
   l= 0   rc=  1.600766   el= -1.001946   Ekb=  7.816946   kbcos=  0.279978
   l= 1   rc=  1.620907   el= -0.398597   Ekb= -4.829535   kbcos= -0.287433
   l= 2   rc=  1.836783   el=  0.002326   Ekb= -1.327964   kbcos= -0.005365
   l= 3   rc=  1.979871   el=  0.003420   Ekb= -0.522285   kbcos= -0.000569

KBgen: Total number of  Kleinman-Bylander projectors:   16
atom: -------------------------------------------------------------------------

atom: SANKEY-TYPE ORBITALS:
atom: Selected multiple-zeta basis: split     

SPLIT: Orbitals with angular momentum L= 0

SPLIT: Basis orbitals for state 2s

SPLIT: PAO cut-off radius determinated from an
SPLIT: energy shift=  0.020000 Ry

   izeta = 1
                 lambda =    1.000000
                     rc =    4.191849
                 energy =   -0.983900
                kinetic =    0.918801
    potential(screened) =   -1.902702
       potential(ionic) =   -5.506899

   izeta = 2
                 rmatch =    3.431921
              splitnorm =    0.150000
                 energy =   -0.849361
                kinetic =    1.377262
    potential(screened) =   -2.226623
       potential(ionic) =   -6.060758

SPLIT: Orbitals with angular momentum L= 1

SPLIT: Basis orbitals for state 2p

SPLIT: PAO cut-off radius determinated from an
SPLIT: energy shift=  0.020000 Ry

   izeta = 1
                 lambda =    1.000000
                     rc =    4.870301
                 energy =   -0.379088
                kinetic =    2.614064
    potential(screened) =   -2.993152
       potential(ionic) =   -6.506293

   izeta = 2
                 rmatch =    3.475094
              splitnorm =    0.150000
                 energy =   -0.215528
                kinetic =    3.940460
    potential(screened) =   -4.155988
       potential(ionic) =   -8.054000

POLgen: Perturbative polarization orbital with L=  2

POLgen: Polarization orbital for state 2p

   izeta = 1
                     rc =    4.870301
                 energy =    1.279486
                kinetic =    2.608016
    potential(screened) =   -1.328529
       potential(ionic) =   -4.267494
atom: Total number of Sankey-type orbitals: 13

atm_pop: Valence configuration(local Pseudopot. screening):
 2s( 2.00)                                                            
 2p( 2.00)                                                            
Vna: chval, zval:    4.00000   4.00000

Vna:  Cut-off radius for the neutral-atom potential:   4.870301

atom: _________________________________________________________________________

prinput: Basis input ----------------------------------------------------------

PAO.BasisType split     

%block ChemicalSpeciesLabel
    1   79 Au                      # Species index, atomic number, species label
    2    6 C                       # Species index, atomic number, species label
%endblock ChemicalSpeciesLabel

%block PAO.Basis                 # Define Basis set
Au          1                    # Species label, number of l-shells
 n=6   0   1                         # n, l, Nzeta 
   5.504   
   1.000   
C           2                    # Species label, number of l-shells
 n=2   0   2                         # n, l, Nzeta 
   4.192      3.432   
   1.000      1.000   
 n=2   1   2 P   1                   # n, l, Nzeta, Polarization, NzetaPol
   4.870      3.475   
   1.000      1.000   
%endblock PAO.Basis

prinput: ----------------------------------------------------------------------


siesta: ******************** Simulation parameters ****************************
siesta:
siesta: The following are some of the parameters of the simulation.
siesta: A complete list of the parameters used, including defect values,
siesta: can be found in file out.fdf
siesta:
coor:   Atomic-coordinates input format  =     Cartesian coordinates
coor:                                          (in Angstroms)
redata: Number of spin components        =     1
redata: SpinOrbit                        =     0
redata: Long output                      =     F
redata: Number of Atomic Species         =     2
redata: Charge density info will appear in .RHO file
redata: Write Mulliken Pop.              =     NO
redata: Mesh Cutoff                      =   200.0000  Ry
redata: Net charge of the system         =     0.0000 |e|
redata: Max. number of SCF Iter          =  1000
redata: One Pulay mixing every           =     5 iterations
redata: Mix DM in first SCF step ?       =     T
redata: Write Pulay info on disk?        =     F
redata: New DM Mixing Weight             =     0.0300
redata: No kicks to SCF
redata: DM Mixing Weight for Kicks       =     0.5000
redata: DM Tolerance for SCF             =     0.000200
redata: Use continuation files for DM    =     T
redata: Neglect nonoverlap interactions  =     F
redata: Method of Calculation            =     Diagonalization
redata: Divide and Conquer               =     F
redata: Electronic Temperature           =     0.0019  Ry
redata: Fix the spin of the system       =     F
redata: Dynamics option                  =     CG coord. optimization
redata: Variable cell                    =     F
redata: Use continuation files for CG    =     F
redata: Maximum number of CG moves       =     0
redata: Max atomic displ per move        =     0.2000  Bohr
redata: Force tolerance                  =     0.0016  Ry/Bohr
redata: ***********************************************************************

siesta: Atomic coordinates (Bohr) and species
siesta:      2.72685   1.57435   0.00000  1        1
siesta:      5.45370  -3.14869   0.00000  1        2
siesta:      8.18054  -7.87173   0.00000  1        3
siesta:      5.45370   6.29738   0.00000  1        4
siesta:      8.18054   1.57435   0.00000  1        5
siesta:     10.90739  -3.14869   0.00000  1        6
siesta:      8.18054  11.02042   0.00000  1        7
siesta:     10.90739   6.29738   0.00000  1        8
siesta:     13.63424   1.57435   0.00000  1        9
siesta:      2.72685  -1.57435   4.45293  1       10
siesta:      5.45370  -6.29738   4.45293  1       11
siesta:      8.18054 -11.02042   4.45293  1       12
siesta:      5.45370   3.14869   4.45293  1       13
siesta:      8.18054  -1.57435   4.45293  1       14
siesta:     10.90739  -6.29738   4.45293  1       15
siesta:      8.18054   7.87173   4.45293  1       16
siesta:     10.90739   3.14869   4.45293  1       17
siesta:     13.63424  -1.57435   4.45293  1       18
siesta:      2.72685   1.57435   8.90585  1       19
siesta:      5.45370  -3.14869   8.90585  1       20
siesta:      8.18054  -7.87173   8.90585  1       21
siesta:      5.45370   6.29738   8.90585  1       22
siesta:      8.18054   1.57435   8.90585  1       23
siesta:     10.90739  -3.14869   8.90585  1       24
siesta:      8.18054  11.02042   8.90585  1       25
siesta:     10.90739   6.29738   8.90585  1       26
siesta:     13.63424   1.57435   8.90585  1       27
siesta:      2.72685  -1.57435  13.35878  1       28
siesta:      5.45370  -6.29738  13.35878  1       29
siesta:      8.18054 -11.02042  13.35878  1       30
siesta:      5.45370   3.14869  13.35878  1       31
siesta:      8.18054  -1.57435  13.35878  1       32
siesta:     10.90739  -6.29738  13.35878  1       33
siesta:      8.18054   7.87173  13.35878  1       34
siesta:     10.90739   3.14869  13.35878  1       35
siesta:     13.63424  -1.57435  13.35878  1       36
siesta:      8.18054   1.57435  19.08624  2       37
siesta:      8.18054   1.57435  21.56178  2       38
siesta:      8.18054   1.57435  24.03733  2       39
siesta:      2.72685  -1.57435  29.74430  1       40
siesta:      5.45370  -6.29738  29.74430  1       41
siesta:      8.18054 -11.02042  29.74430  1       42
siesta:      5.45370   3.14869  29.74430  1       43
siesta:      8.18054  -1.57435  29.74430  1       44
siesta:     10.90739  -6.29738  29.74430  1       45
siesta:      8.18054   7.87173  29.74430  1       46
siesta:     10.90739   3.14869  29.74430  1       47
siesta:     13.63424  -1.57435  29.74430  1       48
siesta:      0.00000   0.00000  34.19723  1       49
siesta:      2.72685  -4.72304  34.19723  1       50
siesta:      5.45370  -9.44607  34.19723  1       51
siesta:      2.72685   4.72304  34.19723  1       52
siesta:      5.45370   0.00000  34.19723  1       53
siesta:      8.18054  -4.72304  34.19723  1       54
siesta:      5.45370   9.44607  34.19723  1       55
siesta:      8.18054   4.72304  34.19723  1       56
siesta:     10.90739   0.00000  34.19723  1       57
siesta:      2.72685   1.57435  38.65015  1       58
siesta:      5.45370  -3.14869  38.65015  1       59
siesta:      8.18054  -7.87173  38.65015  1       60
siesta:      5.45370   6.29738  38.65015  1       61
siesta:      8.18054   1.57435  38.65015  1       62
siesta:     10.90739  -3.14869  38.65015  1       63
siesta:      8.18054  11.02042  38.65015  1       64
siesta:     10.90739   6.29738  38.65015  1       65
siesta:     13.63424   1.57435  38.65015  1       66
siesta:      2.72685  -1.57435  43.10307  1       67
siesta:      5.45370  -6.29738  43.10307  1       68
siesta:      8.18054 -11.02042  43.10307  1       69
siesta:      5.45370   3.14869  43.10307  1       70
siesta:      8.18054  -1.57435  43.10307  1       71
siesta:     10.90739  -6.29738  43.10307  1       72
siesta:      8.18054   7.87173  43.10307  1       73
siesta:     10.90739   3.14869  43.10307  1       74
siesta:     13.63424  -1.57435  43.10307  1       75

initatomlists: Number of atoms, orbitals, and projectors:     75   111   336

siesta: System type = bulk      
 Nodes, Orbitals           8         111
 blocksizedefault           8

* ProcessorY, Blocksize:    2   8


siesta: k-grid: Number of k-points =     4
siesta: k-grid: Cutoff             =     8.658 Ang
siesta: k-grid: Supercell and displacements
siesta: k-grid:    2   0   0      0.000
siesta: k-grid:    0   2   0      0.000
siesta: k-grid:    0   0   1      0.000
 Using EM.ParallelOverKNum =           1
siesta: overlap:  rmaxh   veclen  direction
siesta: overlap:  15.7141 16.3611   1
smeagol: The size of the cell is being expanded
smeagol:  along the perpendicular direction to
smeagol:  perform transport calculations
siesta: overlap:  rmaxh   veclen  direction
siesta: overlap:  15.7141 16.3611   2
smeagol: The size of the cell is being expanded
smeagol:  along the perpendicular direction to
smeagol:  perform transport calculations
siesta: overlap:  rmaxh   veclen  direction
siesta: overlap:  15.7141 47.5560   3
 label:           1 Au                             1 s      
 label:           2 Au                             2 s      
 label:           3 Au                             3 s      
 label:           4 Au                             4 s      
 label:           5 Au                             5 s      
 label:           6 Au                             6 s      
 label:           7 Au                             7 s      
 label:           8 Au                             8 s      
 label:           9 Au                             9 s      
 label:          10 Au                            10 s      
 label:          11 Au                            11 s      
 label:          12 Au                            12 s      
 label:          13 Au                            13 s      
 label:          14 Au                            14 s      
 label:          15 Au                            15 s      
 label:          16 Au                            16 s      
 label:          17 Au                            17 s      
 label:          18 Au                            18 s      
 label:          19 Au                            19 s      
 label:          20 Au                            20 s      
 label:          21 Au                            21 s      
 label:          22 Au                            22 s      
 label:          23 Au                            23 s      
 label:          24 Au                            24 s      
 label:          25 Au                            25 s      
 label:          26 Au                            26 s      
 label:          27 Au                            27 s      
 label:          28 Au                            28 s      
 label:          29 Au                            29 s      
 label:          30 Au                            30 s      
 label:          31 Au                            31 s      
 label:          32 Au                            32 s      
 label:          33 Au                            33 s      
 label:          34 Au                            34 s      
 label:          35 Au                            35 s      
 label:          36 Au                            36 s      
 label:          37 C                             37 s      
 label:          38 C                             37 s      
 label:          39 C                             37 py     
 label:          40 C                             37 pz     
 label:          41 C                             37 px     
 label:          42 C                             37 py     
 label:          43 C                             37 pz     
 label:          44 C                             37 px     
 label:          45 C                             37 Pdxy   
 label:          46 C                             37 Pdyz   
 label:          47 C                             37 Pdz2   
 label:          48 C                             37 Pdxz   
 label:          49 C                             37 Pdx2-y2
 label:          50 C                             38 s      
 label:          51 C                             38 s      
 label:          52 C                             38 py     
 label:          53 C                             38 pz     
 label:          54 C                             38 px     
 label:          55 C                             38 py     
 label:          56 C                             38 pz     
 label:          57 C                             38 px     
 label:          58 C                             38 Pdxy   
 label:          59 C                             38 Pdyz   
 label:          60 C                             38 Pdz2   
 label:          61 C                             38 Pdxz   
 label:          62 C                             38 Pdx2-y2
 label:          63 C                             39 s      
 label:          64 C                             39 s      
 label:          65 C                             39 py     
 label:          66 C                             39 pz     
 label:          67 C                             39 px     
 label:          68 C                             39 py     
 label:          69 C                             39 pz     
 label:          70 C                             39 px     
 label:          71 C                             39 Pdxy   
 label:          72 C                             39 Pdyz   
 label:          73 C                             39 Pdz2   
 label:          74 C                             39 Pdxz   
 label:          75 C                             39 Pdx2-y2
 label:          76 Au                            40 s      
 label:          77 Au                            41 s      
 label:          78 Au                            42 s      
 label:          79 Au                            43 s      
 label:          80 Au                            44 s      
 label:          81 Au                            45 s      
 label:          82 Au                            46 s      
 label:          83 Au                            47 s      
 label:          84 Au                            48 s      
 label:          85 Au                            49 s      
 label:          86 Au                            50 s      
 label:          87 Au                            51 s      
 label:          88 Au                            52 s      
 label:          89 Au                            53 s      
 label:          90 Au                            54 s      
 label:          91 Au                            55 s      
 label:          92 Au                            56 s      
 label:          93 Au                            57 s      
 label:          94 Au                            58 s      
 label:          95 Au                            59 s      
 label:          96 Au                            60 s      
 label:          97 Au                            61 s      
 label:          98 Au                            62 s      
 label:          99 Au                            63 s      
 label:         100 Au                            64 s      
 label:         101 Au                            65 s      
 label:         102 Au                            66 s      
 label:         103 Au                            67 s      
 label:         104 Au                            68 s      
 label:         105 Au                            69 s      
 label:         106 Au                            70 s      
 label:         107 Au                            71 s      
 label:         108 Au                            72 s      
 label:         109 Au                            73 s      
 label:         110 Au                            74 s      
 label:         111 Au                            75 s      

superc: Internal auxiliary supercell:     3 x     3 x     1  =       9
superc: Number of atoms, orbitals, and projectors:    675   999  3024
 
* Maximum dynamic memory allocated =     2 MB

siesta:                 ==============================
SMEAGOL                 Bias step =    0, V = -0.073 Ry
                            Begin CG move =      0
                        ==============================

superc: Internal auxiliary supercell:     3 x     3 x     1  =       9
superc: Number of atoms, orbitals, and projectors:    675   999  3024

read_ldau The LDA+U method used is from Czyzky PRB 49 14211

InitMesh: MESH =    64 x    64 x   216 =      884736
InitMesh: Mesh cutoff (required, used) =   200.000   201.360 Ry
 
* Maximum dynamic memory allocated =    19 MB
siesta: reading saved Hamiltonian
siesta: saved Hamiltonian not found

siesta: Program's energy decomposition (eV):
siesta: Eions   =      8455.484436
siesta: Ena     =      6834.600829
siesta: Ekin    =       786.057145
siesta: Enl     =       515.840036
siesta: DEna    =        -0.000081
siesta: DUscf   =         0.000000
siesta: DUext   =         0.000000
siesta: Exc     =     -8722.237411
siesta: eta*DQ  =         0.000000
siesta: Emadel  =         0.000000
siesta: Eharris =     -9133.018789
siesta: Eso     =         0.000000
siesta: Etot    =     -9041.223918
siesta: FreeEng =     -9041.223918

siesta: iscf   Eharris(eV)      E_KS(eV)   FreeEng(eV)   dDmax  Ef(eV)
siesta:    1    -9133.0188    -9041.2239    -9041.2239  1.7112  0.0000
timer: Routine,Calls,Time,% = IterSCF        1      33.420  85.54
siesta:    2    -9133.1394    -9043.9977    -9043.9977  0.0310  0.0000
siesta:    3    -9120.6756    -9113.9559    -9113.9559  1.0119  0.0000
siesta:    4    -9141.2175    -9134.5035    -9134.5035  0.6055  0.0000
siesta:    5    -9152.9118    -9142.4979    -9142.4979  0.3940  0.0000
siesta:    6    -9145.4136    -9152.6437    -9152.6437  0.2552  0.0000
siesta:    7    -9152.3821    -9146.1631    -9146.1631  0.1963  0.0000
siesta:    8    -9140.6464    -9140.6901    -9140.6901  1.5152  0.0000
siesta:    9    -9127.4758    -9140.6729    -9140.6729  1.5130  0.0000
siesta:   10    -9140.7128    -9139.2158    -9139.2158  0.1899  0.0000
siesta:   11    -9141.4380    -9140.5658    -9140.5658  0.2667  0.0000
siesta:   12    -9141.0481    -9141.0810    -9141.0810  0.3682  0.0000
siesta:   13    -9144.1356    -9141.8201    -9141.8201  0.0783  0.0000
siesta:   14    -9144.0547    -9144.0421    -9144.0421  0.0371  0.0000
siesta:   15    -9144.3641    -9144.0470    -9144.0470  0.0601  0.0000
siesta:   16    -9144.5433    -9144.3497    -9144.3497  0.0440  0.0000
siesta:   17    -9144.5945    -9144.5391    -9144.5391  0.0126  0.0000
siesta:   18    -9144.1416    -9144.5908    -9144.5908  0.0146  0.0000
siesta:   19    -9144.3515    -9144.1697    -9144.1697  0.0253  0.0000
siesta:   20    -9144.2962    -9144.3408    -9144.3408  0.0081  0.0000
siesta:   21    -9144.3184    -9144.2993    -9144.2993  0.0043  0.0000
siesta:   22    -9144.2943    -9144.3169    -9144.3169  0.0021  0.0000
siesta:   23    -9144.2778    -9144.2954    -9144.2954  0.0014  0.0000
siesta:   24    -9144.2466    -9144.2788    -9144.2788  0.0016  0.0000
siesta:   25    -9144.2435    -9144.2483    -9144.2483  0.0011  0.0000
siesta:   26    -9144.2411    -9144.2438    -9144.2438  0.0008  0.0000
siesta:   27    -9144.2494    -9144.2411    -9144.2411  0.0007  0.0000
siesta:   28    -9144.2548    -9144.2489    -9144.2489  0.0006  0.0000
siesta:   29    -9144.2529    -9144.2544    -9144.2544  0.0004  0.0000
siesta:   30    -9144.2535    -9144.2531    -9144.2531  0.0001  0.0000
 Calculating transmission coefficient

siesta: E_KS(eV) =            -9144.2535

siesta: E_KS - E_eggbox =     -9144.2535

siesta: Atomic forces (eV/Ang):
----------------------------------------
 Tot    0.049088   -0.039115    0.267415
----------------------------------------
 Max   25.581800
 Res    2.867575    sqrt( Sum f_i^2 / 3N )
----------------------------------------
 Max   25.581800    constrained
 
* Maximum dynamic memory allocated =    20 MB

siesta: Program's energy decomposition (eV):
siesta:-Eions   =   -8455.484436
siesta: Ena     =    6834.600829
siesta: Ekin    =     706.186192
siesta: Enl     =     456.399881
siesta: DEna    =      27.488408
siesta: DUscf   =       1.595013
siesta: DUext   =       0.000000
siesta: Exc     =   -8715.039369
siesta: eta*DQ  =       0.000000
siesta: Emadel  =       0.000000
siesta: Ekinion =       0.000000
siesta: Eharris =   -9144.253508
siesta: Eso     =       0.000000
siesta: Etot    =   -9144.253482
siesta: FreeEng =   -9144.253482

siesta: Final energy (eV):
siesta:       Kinetic =     706.186192
siesta:       Hartree =     626.069201
siesta:    Ext. field =       0.000000
siesta:   Exch.-corr. =   -8715.039369
siesta:  Ion-electron =   -1678.029099
siesta:       Ion-ion =     -83.440407
siesta:       Ekinion =       0.000000
siesta:         Total =   -9144.253482

siesta: Atomic forces (eV/Ang):
siesta:    1    0.074176    0.055529    0.132842
siesta:    2    0.059685   -0.011840    0.132557
siesta:    3    0.000893    0.079099    0.133350
siesta:    4   -0.000885   -0.015579    0.133171
siesta:    5    0.000746   -0.014508    0.134283
siesta:    6   -0.058062   -0.011958    0.133068
siesta:    7    0.000931   -0.063237    0.133533
siesta:    8    0.002524   -0.015345    0.132949
siesta:    9   -0.072362    0.055681    0.133129
siesta:   10    0.069198   -0.045296    0.192486
siesta:   11    0.004862    0.027167    0.183295
siesta:   12    0.001037    0.041523    0.197415
siesta:   13    0.052964    0.025569    0.191820
siesta:   14    0.000874   -0.018050    0.193524
siesta:   15   -0.002991    0.026937    0.183098
siesta:   16    0.001013   -0.096222    0.177192
siesta:   17   -0.051103    0.025682    0.192307
siesta:   18   -0.067163   -0.045458    0.192767
siesta:   19    0.035805    0.055866   -0.517332
siesta:   20    0.078916   -0.034358   -0.523841
siesta:   21    0.001090    0.089979   -0.507008
siesta:   22   -0.009473   -0.021600   -0.519623
siesta:   23    0.000872   -0.001867   -0.419644
siesta:   24   -0.076906   -0.034464   -0.523407
siesta:   25    0.001126   -0.030146   -0.493003
siesta:   26    0.011340   -0.021307   -0.519793
siesta:   27   -0.033590    0.056045   -0.517073
siesta:   28    0.079781   -0.021693   -5.910129
siesta:   29    0.013717    0.023998   -5.902389
siesta:   30    0.001175    0.035261   -5.913172
siesta:   31    0.098288    0.002598   -5.470145
siesta:   32    0.001065    0.030075   -5.477806
siesta:   33   -0.011520    0.023784   -5.902593
siesta:   34    0.001144   -0.122451   -5.888839
siesta:   35   -0.096123    0.002654   -5.469790
siesta:   36   -0.077497   -0.021861   -5.909908
siesta:   37    0.000074   -0.000009   25.581800
siesta:   38   -0.000018   -0.001008   -0.994561
siesta:   39   -0.000010    0.000611  -24.562372
siesta:   40    0.096086   -0.035750    5.781271
siesta:   41    0.006009    0.015564    5.802042
siesta:   42    0.001813    0.062619    5.807318
siesta:   43    0.130924   -0.026732    5.345879
siesta:   44    0.002497    0.093385    5.339679
siesta:   45   -0.002247    0.016632    5.801290
siesta:   46    0.001356   -0.105664    5.779005
siesta:   47   -0.128839   -0.026289    5.345529
siesta:   48   -0.092332   -0.035250    5.781567
siesta:   49    0.038120    0.011439    0.516176
siesta:   50    0.006285   -0.055476    0.501844
siesta:   51   -0.039200   -0.003721    0.514036
siesta:   52    0.005133    0.044709    0.514710
siesta:   53    0.053841    0.014771    0.457884
siesta:   54    0.000761   -0.004262    0.512070
siesta:   55   -0.040373   -0.006958    0.502286
siesta:   56    0.000756   -0.015238    0.456299
siesta:   57   -0.052177    0.014729    0.457830
siesta:   58    0.047438    0.040886   -0.151695
siesta:   59    0.071732   -0.017069   -0.145171
siesta:   60    0.001097    0.088517   -0.106726
siesta:   61    0.009472   -0.025248   -0.148282
siesta:   62    0.002029   -0.002898   -0.130240
siesta:   63   -0.070056   -0.017728   -0.144880
siesta:   64    0.001481   -0.029908   -0.105866
siesta:   65   -0.006708   -0.026220   -0.147736
siesta:   66   -0.044454    0.040479   -0.151749
siesta:   67    0.063350   -0.049095   -0.039167
siesta:   68    0.013222    0.022902   -0.023779
siesta:   69    0.001521    0.050567   -0.038225
siesta:   70    0.068739    0.016539   -0.023429
siesta:   71    0.001362   -0.000469   -0.024381
siesta:   72   -0.010391    0.022670   -0.023927
siesta:   73    0.001508   -0.088746   -0.024070
siesta:   74   -0.065905    0.016666   -0.023168
siesta:   75   -0.060353   -0.049263   -0.038966
siesta: ----------------------------------------
siesta:  Tot    0.049088   -0.039115    0.267415

siesta: Stress tensor (static) (eV/Ang**3):
siesta:     0.611027    0.000001    0.000088
siesta:     0.000001    0.613168   -0.000004
siesta:     0.000088   -0.000004    0.602132

siesta: Cell volume =       1633.666942 Ang**3

siesta: Pressure (static):
siesta:                Solid            Molecule  Units
siesta:          -0.00663034         -0.00748992  Ry/Bohr**3
siesta:          -0.60877564         -0.68769875  eV/Ang**3
siesta:        -975.37665327      -1101.82678545  kBar

siesta: Total spin polarization (Qup-Qdown) =    0.000000
siesta: Spin vector =    0.000000    0.000000    0.000000
siesta: No SpinPolK block detected...

siesta:                 ==============================
SMEAGOL                 Bias step =    1, V = -0.055 Ry
                            Begin CG move =      0
                        ==============================

superc: Internal auxiliary supercell:     3 x     3 x     1  =       9
superc: Number of atoms, orbitals, and projectors:    675   999  3024

read_ldau The LDA+U method used is from Czyzky PRB 49 14211
 
* Maximum dynamic memory allocated =    20 MB
siesta: reading saved Hamiltonian

iodm: Reading Density Matrix from files

AuC3Au.HM                        
siesta: found saved Hamiltonian

siesta: Program's energy decomposition (eV):
siesta: Eions   =      8455.484436
siesta: Ena     =      6834.600829
siesta: Ekin    =       706.186192
siesta: Enl     =       456.399881
siesta: DEna    =        27.488408
siesta: DUscf   =         1.595013
siesta: DUext   =         0.000000
siesta: Exc     =     -8715.039369
siesta: eta*DQ  =         0.000000
siesta: Emadel  =         0.000000
siesta: Eharris =     -9144.198630
siesta: Eso     =         0.000000
siesta: Etot    =     -9144.253482
siesta: FreeEng =     -9144.253482

siesta: iscf   Eharris(eV)      E_KS(eV)   FreeEng(eV)   dDmax  Ef(eV)
siesta:    1    -9144.1986    -9144.2535    -9144.2535  0.0101  0.0000
siesta:    2    -9143.2658    -9138.8526    -9138.8526  0.5521  0.0000
siesta:    3    -9144.4059    -9147.1415    -9147.1415  0.2930  0.0000
siesta:    4    -9144.9677    -9145.4042    -9145.4042  0.0475  0.0000
siesta:    5    -9144.2665    -9145.0061    -9145.0061  0.0383  0.0000
siesta:    6    -9144.1809    -9144.3254    -9144.3254  0.0118  0.0000
siesta:    7    -9144.2466    -9144.1852    -9144.1852  0.0383  0.0000
siesta:    8    -9144.3517    -9144.2464    -9144.2464  0.0218  0.0000
siesta:    9    -9144.3168    -9144.3462    -9144.3462  0.0062  0.0000
siesta:   10    -9144.4133    -9144.3173    -9144.3173  0.0199  0.0000
siesta:   11    -9144.4116    -9144.4078    -9144.4078  0.0016  0.0000
siesta:   12    -9144.3506    -9144.4115    -9144.4115  0.0013  0.0000
siesta:   13    -9144.3546    -9144.3547    -9144.3547  0.0013  0.0000
siesta:   14    -9144.3503    -9144.3546    -9144.3546  0.0002  0.0000
siesta:   15    -9144.3520    -9144.3505    -9144.3505  0.0002  0.0000
 Calculating transmission coefficient

siesta: E_KS(eV) =            -9144.3519

siesta: Atomic forces (eV/Ang):
----------------------------------------
 Tot    0.049117   -0.039092    0.303902
----------------------------------------
 Max   25.705886
 Res    2.884568    sqrt( Sum f_i^2 / 3N )
----------------------------------------
 Max   25.705886    constrained
 
* Maximum dynamic memory allocated =    20 MB

siesta: Program's energy decomposition (eV):
siesta:-Eions   =   -8455.484436
siesta: Ena     =    6834.600829
siesta: Ekin    =     705.914068
siesta: Enl     =     456.644063
siesta: DEna    =      27.471853
siesta: DUscf   =       1.608735
siesta: DUext   =       0.000000
siesta: Exc     =   -8715.107036
siesta: eta*DQ  =       0.000000
siesta: Emadel  =       0.000000
siesta: Ekinion =       0.000000
siesta: Eharris =   -9144.352018
siesta: Eso     =       0.000000
siesta: Etot    =   -9144.351924
siesta: FreeEng =   -9144.351924

siesta: Final energy (eV):
siesta:       Kinetic =     705.914068
siesta:       Hartree =     625.731406
siesta:    Ext. field =       0.000000
siesta:   Exch.-corr. =   -8715.107036
siesta:  Ion-electron =   -1677.449955
siesta:       Ion-ion =     -83.440407
siesta:       Ekinion =       0.000000
siesta:         Total =   -9144.351924

siesta: Atomic forces (eV/Ang):
siesta:    1    0.074153    0.055528    0.108428
siesta:    2    0.059669   -0.011849    0.108191
siesta:    3    0.000893    0.079086    0.109011
siesta:    4   -0.000891   -0.015571    0.108791
siesta:    5    0.000746   -0.014502    0.109916
siesta:    6   -0.058046   -0.011966    0.108703
siesta:    7    0.000931   -0.063229    0.109143
siesta:    8    0.002531   -0.015337    0.108568
siesta:    9   -0.072340    0.055680    0.108717
siesta:   10    0.069158   -0.045284    0.192904
siesta:   11    0.005695    0.026703    0.182365
siesta:   12    0.001037    0.042493    0.196439
siesta:   13    0.054038    0.024966    0.190771
siesta:   14    0.000874   -0.016853    0.192443
siesta:   15   -0.003825    0.026471    0.182165
siesta:   16    0.001014   -0.096173    0.177677
siesta:   17   -0.052176    0.025078    0.191256
siesta:   18   -0.067122   -0.045446    0.193184
siesta:   19    0.036739    0.055440   -0.515501
siesta:   20    0.079831   -0.033959   -0.521746
siesta:   21    0.001106    0.091123   -0.502271
siesta:   22   -0.009519   -0.021424   -0.517641
siesta:   23    0.000889   -0.002986   -0.419139
siesta:   24   -0.077785   -0.034068   -0.521305
siesta:   25    0.001091   -0.030331   -0.491124
siesta:   26    0.011372   -0.021158   -0.517814
siesta:   27   -0.034541    0.055588   -0.515236
siesta:   28    0.080500   -0.022179   -5.895631
siesta:   29    0.014575    0.023258   -5.892994
siesta:   30    0.001143    0.037323   -5.903544
siesta:   31    0.103342    0.000726   -5.467256
siesta:   32    0.001079    0.035146   -5.474884
siesta:   33   -0.012388    0.023069   -5.893195
siesta:   34    0.001159   -0.123539   -5.874532
siesta:   35   -0.101141    0.000781   -5.466904
siesta:   36   -0.078230   -0.022320   -5.895415
siesta:   37    0.000082   -0.000127   25.705886
siesta:   38   -0.000018   -0.000955   -0.767107
siesta:   39   -0.000001    0.000623  -24.880697
siesta:   40    0.097449   -0.035006    5.792543
siesta:   41    0.006131    0.015515    5.812987
siesta:   42    0.001826    0.062776    5.818340
siesta:   43    0.129681   -0.026059    5.360149
siesta:   44    0.002515    0.091955    5.353986
siesta:   45   -0.002356    0.016601    5.812202
siesta:   46    0.001347   -0.107157    5.790120
siesta:   47   -0.127613   -0.025620    5.359821
siesta:   48   -0.093714   -0.034532    5.792796
siesta:   49    0.038127    0.010535    0.524347
siesta:   50    0.005542   -0.055048    0.510126
siesta:   51   -0.039175   -0.003657    0.520489
siesta:   52    0.005089    0.044803    0.521180
siesta:   53    0.054560    0.015178    0.464672
siesta:   54    0.000716   -0.004415    0.518619
siesta:   55   -0.039586   -0.006592    0.510586
siesta:   56    0.000783   -0.016074    0.463050
siesta:   57   -0.052908    0.015244    0.464621
siesta:   58    0.047697    0.040741   -0.154684
siesta:   59    0.071842   -0.016835   -0.147998
siesta:   60    0.001122    0.088663   -0.108533
siesta:   61    0.009658   -0.025329   -0.151316
siesta:   62    0.002029   -0.002903   -0.132565
siesta:   63   -0.070151   -0.017510   -0.147639
siesta:   64    0.001463   -0.029963   -0.109969
siesta:   65   -0.006920   -0.026316   -0.150801
siesta:   66   -0.044713    0.040322   -0.154788
siesta:   67    0.063343   -0.049092   -0.041376
siesta:   68    0.013228    0.022897   -0.026004
siesta:   69    0.001521    0.050567   -0.040445
siesta:   70    0.068720    0.016543   -0.025648
siesta:   71    0.001362   -0.000483   -0.026587
siesta:   72   -0.010397    0.022663   -0.026151
siesta:   73    0.001508   -0.088738   -0.026289
siesta:   74   -0.065886    0.016668   -0.025391
siesta:   75   -0.060345   -0.049261   -0.041172
siesta: ----------------------------------------
siesta:  Tot    0.049117   -0.039092    0.303902

siesta: Stress tensor (static) (eV/Ang**3):
siesta:     0.611265    0.000001    0.000088
siesta:     0.000001    0.613406   -0.000004
siesta:     0.000088   -0.000004    0.602582

siesta: Cell volume =       1633.666942 Ang**3

siesta: Pressure (static):
siesta:                Solid            Molecule  Units
siesta:          -0.00663371         -0.00749739  Ry/Bohr**3
siesta:          -0.60908445         -0.68838485  eV/Ang**3
siesta:        -975.87142507      -1102.92604864  kBar

siesta: Total spin polarization (Qup-Qdown) =    0.000000
siesta: Spin vector =    0.000000    0.000000    0.000000
siesta: No SpinPolK block detected...

siesta:                 ==============================
SMEAGOL                 Bias step =    2, V = -0.037 Ry
                            Begin CG move =      0
                        ==============================

superc: Internal auxiliary supercell:     3 x     3 x     1  =       9
superc: Number of atoms, orbitals, and projectors:    675   999  3024

read_ldau The LDA+U method used is from Czyzky PRB 49 14211
 
* Maximum dynamic memory allocated =    20 MB
siesta: reading saved Hamiltonian

iodm: Reading Density Matrix from files

AuC3Au.HM                        
siesta: found saved Hamiltonian

siesta: Program's energy decomposition (eV):
siesta: Eions   =      8455.484436
siesta: Ena     =      6834.600829
siesta: Ekin    =       705.914068
siesta: Enl     =       456.644063
siesta: DEna    =        27.471853
siesta: DUscf   =         1.608735
siesta: DUext   =         0.000000
siesta: Exc     =     -8715.107036
siesta: eta*DQ  =         0.000000
siesta: Emadel  =         0.000000
siesta: Eharris =     -9144.153916
siesta: Eso     =         0.000000
siesta: Etot    =     -9144.351924
siesta: FreeEng =     -9144.351924

siesta: iscf   Eharris(eV)      E_KS(eV)   FreeEng(eV)   dDmax  Ef(eV)
siesta:    1    -9144.1539    -9144.3519    -9144.3519  0.0102  0.0000
siesta:    2    -9143.3932    -9138.9381    -9138.9381  0.5468  0.0000
siesta:    3    -9144.3359    -9147.0958    -9147.0958  0.2937  0.0000
siesta:    4    -9144.9367    -9145.3890    -9145.3890  0.0419  0.0000
siesta:    5    -9144.2610    -9144.9752    -9144.9752  0.0362  0.0000
siesta:    6    -9144.3204    -9144.3167    -9144.3167  0.0080  0.0000
siesta:    7    -9144.3552    -9144.3200    -9144.3200  0.0173  0.0000
siesta:    8    -9144.3722    -9144.3534    -9144.3534  0.0062  0.0000
siesta:    9    -9144.4036    -9144.3710    -9144.3710  0.0060  0.0000
siesta:   10    -9144.4447    -9144.4011    -9144.4011  0.0031  0.0000
siesta:   11    -9144.4274    -9144.4418    -9144.4418  0.0014  0.0000
siesta:   12    -9144.3734    -9144.4283    -9144.4283  0.0013  0.0000
siesta:   13    -9144.3760    -9144.3771    -9144.3771  0.0003  0.0000
siesta:   14    -9144.3755    -9144.3761    -9144.3761  0.0001  0.0000
 Calculating transmission coefficient

siesta: E_KS(eV) =            -9144.3755

siesta: Atomic forces (eV/Ang):
----------------------------------------
 Tot    0.049110   -0.039093    0.340309
----------------------------------------
 Max   25.798661
 Res    2.899844    sqrt( Sum f_i^2 / 3N )
----------------------------------------
 Max   25.798661    constrained
 
* Maximum dynamic memory allocated =    20 MB

siesta: Program's energy decomposition (eV):
siesta:-Eions   =   -8455.484436
siesta: Ena     =    6834.600829
siesta: Ekin    =     705.739861
siesta: Enl     =     456.879204
siesta: DEna    =      27.443516
siesta: DUscf   =       1.620297
siesta: DUext   =       0.000000
siesta: Exc     =   -8715.174775
siesta: eta*DQ  =       0.000000
siesta: Emadel  =       0.000000
siesta: Ekinion =       0.000000
siesta: Eharris =   -9144.375455
siesta: Eso     =       0.000000
siesta: Etot    =   -9144.375504
siesta: FreeEng =   -9144.375504

siesta: Final energy (eV):
siesta:       Kinetic =     705.739861
siesta:       Hartree =     625.395254
siesta:    Ext. field =       0.000000
siesta:   Exch.-corr. =   -8715.174775
siesta:  Ion-electron =   -1676.895438
siesta:       Ion-ion =     -83.440407
siesta:       Ekinion =       0.000000
siesta:         Total =   -9144.375504

siesta: Atomic forces (eV/Ang):
siesta:    1    0.074154    0.055533    0.084167
siesta:    2    0.059677   -0.011859    0.083876
siesta:    3    0.000893    0.079096    0.084727
siesta:    4   -0.000899   -0.015565    0.084499
siesta:    5    0.000746   -0.014507    0.085603
siesta:    6   -0.058054   -0.011977    0.084387
siesta:    7    0.000931   -0.063235    0.084931
siesta:    8    0.002539   -0.015330    0.084276
siesta:    9   -0.072340    0.055686    0.084453
siesta:   10    0.069118   -0.045342    0.192222
siesta:   11    0.006332    0.026328    0.180657
siesta:   12    0.001037    0.043231    0.194763
siesta:   13    0.055014    0.024401    0.188787
siesta:   14    0.000874   -0.015702    0.190486
siesta:   15   -0.004462    0.026097    0.180459
siesta:   16    0.001013   -0.096130    0.176946
siesta:   17   -0.053153    0.024515    0.189273
siesta:   18   -0.067081   -0.045504    0.192501
siesta:   19    0.036121    0.053982   -0.513042
siesta:   20    0.077631   -0.033293   -0.519493
siesta:   21    0.001093    0.090247   -0.496159
siesta:   22   -0.007878   -0.020757   -0.515309
siesta:   23    0.000877   -0.002118   -0.419955
siesta:   24   -0.075612   -0.033400   -0.519058
siesta:   25    0.001118   -0.030190   -0.488889
siesta:   26    0.009741   -0.020469   -0.515480
siesta:   27   -0.033909    0.054151   -0.512782
siesta:   28    0.079382   -0.022164   -5.880765
siesta:   29    0.017024    0.022061   -5.882808
siesta:   30    0.001169    0.039333   -5.893546
siesta:   31    0.106077   -0.001619   -5.458728
siesta:   32    0.001069    0.038847   -5.466372
siesta:   33   -0.014827    0.021851   -5.883011
siesta:   34    0.001150   -0.122050   -5.859513
siesta:   35   -0.103898   -0.001565   -5.458373
siesta:   36   -0.077101   -0.022327   -5.880540
siesta:   37    0.000079   -0.000085   25.798661
siesta:   38   -0.000021   -0.000993   -0.537661
siesta:   39   -0.000005    0.000647  -25.186657
siesta:   40    0.098444   -0.034346    5.803738
siesta:   41    0.006073    0.015455    5.823609
siesta:   42    0.001823    0.062740    5.828757
siesta:   43    0.128196   -0.025152    5.375257
siesta:   44    0.002514    0.090304    5.368987
siesta:   45   -0.002300    0.016541    5.822842
siesta:   46    0.001345   -0.108402    5.801623
siesta:   47   -0.126130   -0.024712    5.374913
siesta:   48   -0.094706   -0.033867    5.803996
siesta:   49    0.038117    0.009598    0.532947
siesta:   50    0.004641   -0.054437    0.518515
siesta:   51   -0.038873   -0.003653    0.526786
siesta:   52    0.004794    0.044794    0.527468
siesta:   53    0.054939    0.015486    0.471114
siesta:   54    0.000728   -0.004616    0.524667
siesta:   55   -0.038694   -0.005967    0.518975
siesta:   56    0.000780   -0.016667    0.469528
siesta:   57   -0.053284    0.015526    0.471069
siesta:   58    0.047621    0.040524   -0.157365
siesta:   59    0.071497   -0.016634   -0.151123
siesta:   60    0.001114    0.088368   -0.110640
siesta:   61    0.009914   -0.025358   -0.153860
siesta:   62    0.002036   -0.002790   -0.134568
siesta:   63   -0.069805   -0.017303   -0.150763
siesta:   64    0.001462   -0.029853   -0.113471
siesta:   65   -0.007170   -0.026349   -0.153349
siesta:   66   -0.044641    0.040101   -0.157452
siesta:   67    0.063347   -0.049092   -0.043639
siesta:   68    0.013228    0.022896   -0.028298
siesta:   69    0.001521    0.050566   -0.042766
siesta:   70    0.068719    0.016542   -0.027878
siesta:   71    0.001362   -0.000491   -0.028835
siesta:   72   -0.010398    0.022663   -0.028444
siesta:   73    0.001508   -0.088743   -0.028511
siesta:   74   -0.065885    0.016668   -0.027621
siesta:   75   -0.060349   -0.049261   -0.043436
siesta: ----------------------------------------
siesta:  Tot    0.049110   -0.039093    0.340309

siesta: Stress tensor (static) (eV/Ang**3):
siesta:     0.611420    0.000001    0.000088
siesta:     0.000001    0.613560   -0.000004
siesta:     0.000088   -0.000004    0.603007

siesta: Cell volume =       1633.666942 Ang**3

siesta: Pressure (static):
siesta:                Solid            Molecule  Units
siesta:          -0.00663637         -0.00750438  Ry/Bohr**3
siesta:          -0.60932904         -0.68902624  eV/Ang**3
siesta:        -976.26330884      -1103.95367344  kBar

siesta: Total spin polarization (Qup-Qdown) =    0.000000
siesta: Spin vector =    0.000000    0.000000    0.000000
siesta: No SpinPolK block detected...

siesta:                 ==============================
SMEAGOL                 Bias step =    3, V = -0.018 Ry
                            Begin CG move =      0
                        ==============================

superc: Internal auxiliary supercell:     3 x     3 x     1  =       9
superc: Number of atoms, orbitals, and projectors:    675   999  3024

read_ldau The LDA+U method used is from Czyzky PRB 49 14211
 
* Maximum dynamic memory allocated =    20 MB
siesta: reading saved Hamiltonian

iodm: Reading Density Matrix from files

AuC3Au.HM                        
siesta: found saved Hamiltonian

siesta: Program's energy decomposition (eV):
siesta: Eions   =      8455.484436
siesta: Ena     =      6834.600829
siesta: Ekin    =       705.739861
siesta: Enl     =       456.879204
siesta: DEna    =        27.443516
siesta: DUscf   =         1.620297
siesta: DUext   =         0.000000
siesta: Exc     =     -8715.174775
siesta: eta*DQ  =         0.000000
siesta: Emadel  =         0.000000
siesta: Eharris =     -9144.115554
siesta: Eso     =         0.000000
siesta: Etot    =     -9144.375504
siesta: FreeEng =     -9144.375504

siesta: iscf   Eharris(eV)      E_KS(eV)   FreeEng(eV)   dDmax  Ef(eV)
siesta:    1    -9144.1156    -9144.3755    -9144.3755  0.0102  0.0000
siesta:    2    -9143.4830    -9138.9752    -9138.9752  0.5449  0.0000
siesta:    3    -9144.2846    -9147.0718    -9147.0718  0.2940  0.0000
siesta:    4    -9144.8757    -9145.3876    -9145.3876  0.0320  0.0000
siesta:    5    -9144.2878    -9144.9178    -9144.9178  0.0296  0.0000
siesta:    6    -9144.4618    -9144.3348    -9144.3348  0.0079  0.0000
siesta:    7    -9144.4195    -9144.4540    -9144.4540  0.0071  0.0000
siesta:    8    -9144.4215    -9144.4216    -9144.4216  0.0059  0.0000
siesta:    9    -9144.4691    -9144.4214    -9144.4214  0.0047  0.0000
siesta:   10    -9144.4748    -9144.4656    -9144.4656  0.0024  0.0000
siesta:   11    -9144.4639    -9144.4742    -9144.4742  0.0013  0.0000
siesta:   12    -9144.4382    -9144.4646    -9144.4646  0.0011  0.0000
siesta:   13    -9144.4276    -9144.4400    -9144.4400  0.0004  0.0000
siesta:   14    -9144.4206    -9144.4284    -9144.4284  0.0002  0.0000
 Calculating transmission coefficient

siesta: E_KS(eV) =            -9144.4211

siesta: Atomic forces (eV/Ang):
----------------------------------------
 Tot    0.049110   -0.039124    0.376693
----------------------------------------
 Max   25.843231
 Res    2.912823    sqrt( Sum f_i^2 / 3N )
----------------------------------------
 Max   25.843231    constrained
 
* Maximum dynamic memory allocated =    20 MB

siesta: Program's energy decomposition (eV):
siesta:-Eions   =   -8455.484436
siesta: Ena     =    6834.600829
siesta: Ekin    =     705.555754
siesta: Enl     =     457.069843
siesta: DEna    =      27.431913
siesta: DUscf   =       1.632227
siesta: DUext   =       0.000000
siesta: Exc     =   -8715.227270
siesta: eta*DQ  =       0.000000
siesta: Emadel  =       0.000000
siesta: Ekinion =       0.000000
siesta: Eharris =   -9144.420644
siesta: Eso     =       0.000000
siesta: Etot    =   -9144.421140
siesta: FreeEng =   -9144.421140

siesta: Final energy (eV):
siesta:       Kinetic =     705.555754
siesta:       Hartree =     625.112714
siesta:    Ext. field =       0.000000
siesta:   Exch.-corr. =   -8715.227270
siesta:  Ion-electron =   -1676.421930
siesta:       Ion-ion =     -83.440407
siesta:       Ekinion =       0.000000
siesta:         Total =   -9144.421140

siesta: Atomic forces (eV/Ang):
siesta:    1    0.074129    0.055536    0.059887
siesta:    2    0.059668   -0.011885    0.059571
siesta:    3    0.000893    0.079099    0.060375
siesta:    4   -0.000915   -0.015542    0.060207
siesta:    5    0.000747   -0.014508    0.061348
siesta:    6   -0.058045   -0.012003    0.060082
siesta:    7    0.000931   -0.063236    0.060719
siesta:    8    0.002554   -0.015308    0.059984
siesta:    9   -0.072315    0.055689    0.060173
siesta:   10    0.069056   -0.045392    0.191553
siesta:   11    0.006717    0.026108    0.178866
siesta:   12    0.001037    0.043675    0.192974
siesta:   13    0.055897    0.023893    0.187079
siesta:   14    0.000874   -0.014675    0.188782
siesta:   15   -0.004846    0.025878    0.178668
siesta:   16    0.001013   -0.096059    0.176270
siesta:   17   -0.054036    0.024006    0.187564
siesta:   18   -0.067019   -0.045553    0.191831
siesta:   19    0.035898    0.052804   -0.509863
siesta:   20    0.076284   -0.032739   -0.516383
siesta:   21    0.001089    0.089967   -0.487477
siesta:   22   -0.006754   -0.020149   -0.512161
siesta:   23    0.000873   -0.001861   -0.420223
siesta:   24   -0.074273   -0.032845   -0.515949
siesta:   25    0.001126   -0.030152   -0.486492
siesta:   26    0.008622   -0.019855   -0.512332
siesta:   27   -0.033682    0.052981   -0.509603
siesta:   28    0.078306   -0.022574   -5.866581
siesta:   29    0.019225    0.020838   -5.873380
siesta:   30    0.001177    0.041626   -5.884175
siesta:   31    0.110014   -0.004144   -5.445343
siesta:   32    0.001066    0.043594   -5.452989
siesta:   33   -0.017020    0.020621   -5.873585
siesta:   34    0.001146   -0.120749   -5.845288
siesta:   35   -0.107841   -0.004091   -5.444986
siesta:   36   -0.076018   -0.022743   -5.866357
siesta:   37    0.000074   -0.000107   25.843231
siesta:   38   -0.000018   -0.001014   -0.296930
siesta:   39   -0.000007    0.000670  -25.478651
siesta:   40    0.099853   -0.033540    5.815678
siesta:   41    0.006228    0.015421    5.834622
siesta:   42    0.001818    0.062854    5.839904
siesta:   43    0.125910   -0.023880    5.392069
siesta:   44    0.002507    0.087632    5.385885
siesta:   45   -0.002461    0.016503    5.833858
siesta:   46    0.001350   -0.109987    5.813394
siesta:   47   -0.123841   -0.023435    5.391725
siesta:   48   -0.096108   -0.033050    5.815953
siesta:   49    0.038114    0.007936    0.541494
siesta:   50    0.003249   -0.053704    0.527189
siesta:   51   -0.038855   -0.003524    0.532159
siesta:   52    0.004793    0.044904    0.532838
siesta:   53    0.055809    0.015919    0.477013
siesta:   54    0.000743   -0.004674    0.530184
siesta:   55   -0.037310   -0.005223    0.527639
siesta:   56    0.000764   -0.017544    0.475409
siesta:   57   -0.054158    0.015917    0.476961
siesta:   58    0.047991    0.040424   -0.160362
siesta:   59    0.071636   -0.016356   -0.153834
siesta:   60    0.001104    0.088526   -0.111935
siesta:   61    0.010132   -0.025504   -0.156962
siesta:   62    0.002031   -0.002883   -0.136204
siesta:   63   -0.069958   -0.017022   -0.153514
siesta:   64    0.001474   -0.029911   -0.118720
siesta:   65   -0.007378   -0.026484   -0.156426
siesta:   66   -0.045006    0.040011   -0.160434
siesta:   67    0.063336   -0.049087   -0.045836
siesta:   68    0.013233    0.022891   -0.030510
siesta:   69    0.001521    0.050563   -0.044965
siesta:   70    0.068699    0.016546   -0.030094
siesta:   71    0.001362   -0.000506   -0.031039
siesta:   72   -0.010403    0.022658   -0.030658
siesta:   73    0.001508   -0.088734   -0.030735
siesta:   74   -0.065865    0.016671   -0.029833
siesta:   75   -0.060339   -0.049256   -0.045634
siesta: ----------------------------------------
siesta:  Tot    0.049110   -0.039124    0.376693

siesta: Stress tensor (static) (eV/Ang**3):
siesta:     0.611601    0.000001    0.000088
siesta:     0.000001    0.613742   -0.000004
siesta:     0.000088   -0.000004    0.603440

siesta: Cell volume =       1633.666942 Ang**3

siesta: Pressure (static):
siesta:                Solid            Molecule  Units
siesta:          -0.00663926         -0.00751150  Ry/Bohr**3
siesta:          -0.60959461         -0.68968082  eV/Ang**3
siesta:        -976.68880063      -1105.00244372  kBar

siesta: Total spin polarization (Qup-Qdown) =    0.000000
siesta: Spin vector =    0.000000    0.000000    0.000000
siesta: No SpinPolK block detected...

siesta:                 ==============================
SMEAGOL                 Bias step =    4, V =  0.000 Ry
                            Begin CG move =      0
                        ==============================

superc: Internal auxiliary supercell:     3 x     3 x     1  =       9
superc: Number of atoms, orbitals, and projectors:    675   999  3024

read_ldau The LDA+U method used is from Czyzky PRB 49 14211
 
* Maximum dynamic memory allocated =    20 MB
siesta: reading saved Hamiltonian

iodm: Reading Density Matrix from files

AuC3Au.HM                        
siesta: found saved Hamiltonian

siesta: Program's energy decomposition (eV):
siesta: Eions   =      8455.484436
siesta: Ena     =      6834.600829
siesta: Ekin    =       705.555754
siesta: Enl     =       457.069843
siesta: DEna    =        27.431913
siesta: DUscf   =         1.632227
siesta: DUext   =         0.000000
siesta: Exc     =     -8715.227270
siesta: eta*DQ  =         0.000000
siesta: Emadel  =         0.000000
siesta: Eharris =     -9144.137749
siesta: Eso     =         0.000000
siesta: Etot    =     -9144.421140
siesta: FreeEng =     -9144.421140

siesta: iscf   Eharris(eV)      E_KS(eV)   FreeEng(eV)   dDmax  Ef(eV)
siesta:    1    -9144.1377    -9144.4211    -9144.4211  0.0102  0.0000
siesta:    2    -9143.5665    -9139.0903    -9139.0903  0.5395  0.0000
siesta:    3    -9144.1862    -9147.0339    -9147.0339  0.2945  0.0000
siesta:    4    -9144.6797    -9145.3341    -9145.3341  0.0264  0.0000
siesta:    5    -9144.3235    -9144.7311    -9144.7311  0.0167  0.0000
siesta:    6    -9144.4836    -9144.3516    -9144.3516  0.0079  0.0000
siesta:    7    -9144.4442    -9144.4750    -9144.4750  0.0071  0.0000
siesta:    8    -9144.4501    -9144.4461    -9144.4461  0.0049  0.0000
siesta:    9    -9144.4759    -9144.4498    -9144.4498  0.0048  0.0000
siesta:   10    -9144.4485    -9144.4738    -9144.4738  0.0015  0.0000
siesta:   11    -9144.4509    -9144.4501    -9144.4501  0.0009  0.0000
siesta:   12    -9144.4370    -9144.4509    -9144.4509  0.0009  0.0000
siesta:   13    -9144.4327    -9144.4380    -9144.4380  0.0003  0.0000
siesta:   14    -9144.4322    -9144.4331    -9144.4331  0.0002  0.0000
siesta:   15    -9144.4342    -9144.4323    -9144.4323  0.0001  0.0000
 Calculating transmission coefficient

siesta: E_KS(eV) =            -9144.4341

siesta: Atomic forces (eV/Ang):
----------------------------------------
 Tot    0.049113   -0.039137    0.413019
----------------------------------------
 Max   25.772975
 Res    2.918947    sqrt( Sum f_i^2 / 3N )
----------------------------------------
 Max   25.772975    constrained
 
* Maximum dynamic memory allocated =    20 MB

siesta: Program's energy decomposition (eV):
siesta:-Eions   =   -8455.484436
siesta: Ena     =    6834.600829
siesta: Ekin    =     705.471403
siesta: Enl     =     457.160715
siesta: DEna    =      27.428296
siesta: DUscf   =       1.638326
siesta: DUext   =       0.000000
siesta: Exc     =   -8715.249185
siesta: eta*DQ  =       0.000000
siesta: Emadel  =       0.000000
siesta: Ekinion =       0.000000
siesta: Eharris =   -9144.434176
siesta: Eso     =       0.000000
siesta: Etot    =   -9144.434052
siesta: FreeEng =   -9144.434052

siesta: Final energy (eV):
siesta:       Kinetic =     705.471403
siesta:       Hartree =     624.967306
siesta:    Ext. field =       0.000000
siesta:   Exch.-corr. =   -8715.249185
siesta:  Ion-electron =   -1676.183169
siesta:       Ion-ion =     -83.440407
siesta:       Ekinion =       0.000000
siesta:         Total =   -9144.434052

siesta: Atomic forces (eV/Ang):
siesta:    1    0.074077    0.055544    0.035725
siesta:    2    0.059649   -0.011933    0.035401
siesta:    3    0.000893    0.079099    0.036034
siesta:    4   -0.000948   -0.015501    0.036044
siesta:    5    0.000746   -0.014508    0.037278
siesta:    6   -0.058026   -0.012051    0.035912
siesta:    7    0.000930   -0.063236    0.036679
siesta:    8    0.002587   -0.015267    0.035821
siesta:    9   -0.072264    0.055697    0.036011
siesta:   10    0.068930   -0.045468    0.189689
siesta:   11    0.006678    0.026132    0.175363
siesta:   12    0.001036    0.043637    0.189470
siesta:   13    0.056700    0.023438    0.184080
siesta:   14    0.000874   -0.013753    0.185785
siesta:   15   -0.004808    0.025902    0.175165
siesta:   16    0.001012   -0.095912    0.174407
siesta:   17   -0.054839    0.023552    0.184566
siesta:   18   -0.066894   -0.045629    0.189967
siesta:   19    0.035745    0.051840   -0.504987
siesta:   20    0.075416   -0.032416   -0.511505
siesta:   21    0.001091    0.090018   -0.475371
siesta:   22   -0.006037   -0.019506   -0.507281
siesta:   23    0.000875   -0.001910   -0.418592
siesta:   24   -0.073400   -0.032521   -0.511070
siesta:   25    0.001122   -0.030157   -0.483245
siesta:   26    0.007903   -0.019215   -0.507453
siesta:   27   -0.033533    0.052013   -0.504727
siesta:   28    0.077009   -0.023373   -5.852870
siesta:   29    0.021120    0.019731   -5.864111
siesta:   30    0.001174    0.043872   -5.874903
siesta:   31    0.114962   -0.006926   -5.425902
siesta:   32    0.001070    0.049248   -5.433558
siesta:   33   -0.018916    0.019518   -5.864315
siesta:   34    0.001148   -0.119274   -5.831574
siesta:   35   -0.112783   -0.006873   -5.425546
siesta:   36   -0.074721   -0.023538   -5.852647
siesta:   37    0.000075   -0.000165   25.772975
siesta:   38   -0.000017   -0.001008   -0.032481
siesta:   39   -0.000005    0.000695  -25.708705
siesta:   40    0.101741   -0.032447    5.827936
siesta:   41    0.006267    0.015394    5.844677
siesta:   42    0.001818    0.062903    5.849955
siesta:   43    0.122106   -0.021684    5.411921
siesta:   44    0.002509    0.083236    5.405754
siesta:   45   -0.002500    0.016477    5.843913
siesta:   46    0.001348   -0.112164    5.825655
siesta:   47   -0.120041   -0.021238    5.411574
siesta:   48   -0.097996   -0.031957    5.828211
siesta:   49    0.038111    0.004965    0.551713
siesta:   50    0.000667   -0.052220    0.537409
siesta:   51   -0.038686   -0.003414    0.536322
siesta:   52    0.004629    0.045006    0.537001
siesta:   53    0.056788    0.016490    0.481751
siesta:   54    0.000743   -0.004873    0.534344
siesta:   55   -0.034724   -0.003742    0.537858
siesta:   56    0.000764   -0.018670    0.480137
siesta:   57   -0.055139    0.016486    0.481699
siesta:   58    0.048102    0.040180   -0.162970
siesta:   59    0.071479   -0.016137   -0.156444
siesta:   60    0.001104    0.088519   -0.112721
siesta:   61    0.010400   -0.025486   -0.159565
siesta:   62    0.002031   -0.002880   -0.137116
siesta:   63   -0.069803   -0.016802   -0.156124
siesta:   64    0.001474   -0.029913   -0.124414
siesta:   65   -0.007646   -0.026467   -0.159031
siesta:   66   -0.045117    0.039767   -0.163042
siesta:   67    0.063330   -0.049085   -0.048003
siesta:   68    0.013237    0.022887   -0.032710
siesta:   69    0.001522    0.050562   -0.047169
siesta:   70    0.068681    0.016550   -0.032264
siesta:   71    0.001362   -0.000523   -0.033209
siesta:   72   -0.010406    0.022654   -0.032858
siesta:   73    0.001508   -0.088728   -0.032898
siesta:   74   -0.065848    0.016676   -0.032004
siesta:   75   -0.060332   -0.049255   -0.047800
siesta: ----------------------------------------
siesta:  Tot    0.049113   -0.039137    0.413019

siesta: Stress tensor (static) (eV/Ang**3):
siesta:     0.611755    0.000001    0.000088
siesta:     0.000001    0.613896   -0.000004
siesta:     0.000088   -0.000004    0.603744

siesta: Cell volume =       1633.666942 Ang**3

siesta: Pressure (static):
siesta:                Solid            Molecule  Units
siesta:          -0.00664148         -0.00751842  Ry/Bohr**3
siesta:          -0.60979856         -0.69031583  eV/Ang**3
siesta:        -977.01555978      -1106.01985213  kBar

siesta: Total spin polarization (Qup-Qdown) =    0.000000
siesta: Spin vector =    0.000000    0.000000    0.000000
siesta: No SpinPolK block detected...

siesta:                 ==============================
SMEAGOL                 Bias step =    5, V =  0.018 Ry
                            Begin CG move =      0
                        ==============================

superc: Internal auxiliary supercell:     3 x     3 x     1  =       9
superc: Number of atoms, orbitals, and projectors:    675   999  3024

read_ldau The LDA+U method used is from Czyzky PRB 49 14211
 
* Maximum dynamic memory allocated =    20 MB
siesta: reading saved Hamiltonian

iodm: Reading Density Matrix from files

AuC3Au.HM                        
siesta: found saved Hamiltonian

siesta: Program's energy decomposition (eV):
siesta: Eions   =      8455.484436
siesta: Ena     =      6834.600829
siesta: Ekin    =       705.471403
siesta: Enl     =       457.160715
siesta: DEna    =        27.428296
siesta: DUscf   =         1.638326
siesta: DUext   =         0.000000
siesta: Exc     =     -8715.249185
siesta: eta*DQ  =         0.000000
siesta: Emadel  =         0.000000
siesta: Eharris =     -9144.387534
siesta: Eso     =         0.000000
siesta: Etot    =     -9144.434052
siesta: FreeEng =     -9144.434052

siesta: iscf   Eharris(eV)      E_KS(eV)   FreeEng(eV)   dDmax  Ef(eV)
siesta:    1    -9144.3875    -9144.4341    -9144.4341  0.0101  0.0000
siesta:    2    -9143.4767    -9139.4518    -9139.4518  0.5240  0.0000
siesta:    3    -9143.8833    -9146.8649    -9146.8649  0.2880  0.0000
siesta:    4    -9144.4160    -9145.0289    -9145.0289  0.0427  0.0000
siesta:    5    -9144.2954    -9144.4675    -9144.4675  0.0151  0.0000
siesta:    6    -9144.4367    -9144.3074    -9144.3074  0.0086  0.0000
siesta:    7    -9144.3953    -9144.4286    -9144.4286  0.0073  0.0000
siesta:    8    -9144.3946    -9144.3970    -9144.3970  0.0051  0.0000
siesta:    9    -9144.3957    -9144.3949    -9144.3949  0.0052  0.0000
siesta:   10    -9144.3823    -9144.3950    -9144.3950  0.0020  0.0000
siesta:   11    -9144.3984    -9144.3832    -9144.3832  0.0011  0.0000
siesta:   12    -9144.4164    -9144.3974    -9144.3974  0.0011  0.0000
siesta:   13    -9144.4143    -9144.4152    -9144.4152  0.0005  0.0000
siesta:   14    -9144.4146    -9144.4144    -9144.4144  0.0002  0.0000
siesta:   15    -9144.4165    -9144.4146    -9144.4146  0.0001  0.0000
 Calculating transmission coefficient

siesta: E_KS(eV) =            -9144.4164

siesta: Atomic forces (eV/Ang):
----------------------------------------
 Tot    0.049117   -0.039163    0.449194
----------------------------------------
 Max   25.792360
 Res    2.913606    sqrt( Sum f_i^2 / 3N )
----------------------------------------
 Max   25.792360    constrained
 
* Maximum dynamic memory allocated =    20 MB

siesta: Program's energy decomposition (eV):
siesta:-Eions   =   -8455.484436
siesta: Ena     =    6834.600829
siesta: Ekin    =     705.548561
siesta: Enl     =     457.071881
siesta: DEna    =      27.434551
siesta: DUscf   =       1.632943
siesta: DUext   =       0.000000
siesta: Exc     =   -8715.220759
siesta: eta*DQ  =       0.000000
siesta: Emadel  =       0.000000
siesta: Ekinion =       0.000000
siesta: Eharris =   -9144.416550
siesta: Eso     =       0.000000
siesta: Etot    =   -9144.416430
siesta: FreeEng =   -9144.416430

siesta: Final energy (eV):
siesta:       Kinetic =     705.548561
siesta:       Hartree =     625.099955
siesta:    Ext. field =       0.000000
siesta:   Exch.-corr. =   -8715.220759
siesta:  Ion-electron =   -1676.403779
siesta:       Ion-ion =     -83.440407
siesta:       Ekinion =       0.000000
siesta:         Total =   -9144.416430

siesta: Atomic forces (eV/Ang):
siesta:    1    0.074026    0.055560    0.011564
siesta:    2    0.059637   -0.011985    0.011233
siesta:    3    0.000893    0.079098    0.011681
siesta:    4   -0.000986   -0.015466    0.011880
siesta:    5    0.000746   -0.014508    0.013184
siesta:    6   -0.058014   -0.012103    0.011744
siesta:    7    0.000930   -0.063235    0.012645
siesta:    8    0.002626   -0.015232    0.011658
siesta:    9   -0.072213    0.055712    0.011851
siesta:   10    0.068736   -0.045582    0.186875
siesta:   11    0.006364    0.026311    0.170827
siesta:   12    0.001036    0.043288    0.184943
siesta:   13    0.057283    0.023118    0.180049
siesta:   14    0.000874   -0.013078    0.181762
siesta:   15   -0.004493    0.026082    0.170627
siesta:   16    0.001012   -0.095693    0.171572
siesta:   17   -0.055422    0.023231    0.180536
siesta:   18   -0.066699   -0.045743    0.187152
siesta:   19    0.035494    0.051100   -0.498605
siesta:   20    0.074660   -0.032272   -0.505120
siesta:   21    0.001091    0.090021   -0.463882
siesta:   22   -0.005529   -0.018923   -0.500904
siesta:   23    0.000876   -0.001926   -0.414411
siesta:   24   -0.072643   -0.032376   -0.504686
siesta:   25    0.001121   -0.030157   -0.478745
siesta:   26    0.007395   -0.018634   -0.501073
siesta:   27   -0.033282    0.051272   -0.498345
siesta:   28    0.075616   -0.024194   -5.840356
siesta:   29    0.022078    0.019178   -5.854036
siesta:   30    0.001173    0.045000   -5.864833
siesta:   31    0.118879   -0.009160   -5.405794
siesta:   32    0.001071    0.053750   -5.413461
siesta:   33   -0.019874    0.018966   -5.854240
siesta:   34    0.001149   -0.117671   -5.819052
siesta:   35   -0.116697   -0.009108   -5.405440
siesta:   36   -0.073328   -0.024359   -5.840133
siesta:   37    0.000077   -0.000205   25.551936
siesta:   38   -0.000014   -0.001007    0.234834
siesta:   39   -0.000007    0.000705  -25.792360
siesta:   40    0.104042   -0.031178    5.841329
siesta:   41    0.006204    0.015445    5.854190
siesta:   42    0.001818    0.062871    5.859443
siesta:   43    0.117065   -0.018741    5.431686
siesta:   44    0.002508    0.077358    5.425552
siesta:   45   -0.002440    0.016530    5.853425
siesta:   46    0.001348   -0.114798    5.839049
siesta:   47   -0.115006   -0.018294    5.431338
siesta:   48   -0.100297   -0.030688    5.841604
siesta:   49    0.038107    0.001034    0.562564
siesta:   50   -0.002759   -0.050304    0.548240
siesta:   51   -0.038734   -0.003384    0.538839
siesta:   52    0.004684    0.045030    0.539517
siesta:   53    0.058249    0.017350    0.483944
siesta:   54    0.000743   -0.004886    0.536874
siesta:   55   -0.031292   -0.001833    0.548690
siesta:   56    0.000763   -0.020308    0.482291
[...]
siesta:   70    0.068654    0.016551   -0.036973
siesta:   71    0.001362   -0.000546   -0.037920
siesta:   72   -0.010430    0.022637   -0.037560
siesta:   73    0.001508   -0.088738   -0.037564
siesta:   74   -0.065821    0.016677   -0.036713
siesta:   75   -0.060338   -0.049237   -0.052466
siesta: ----------------------------------------
siesta:  Tot    0.049114   -0.039155    0.485244

siesta: Stress tensor (static) (eV/Ang**3):
siesta:     0.612045    0.000001    0.000088
siesta:     0.000001    0.614186   -0.000004
siesta:     0.000088   -0.000004    0.603765

siesta: Cell volume =       1633.666942 Ang**3

siesta: Pressure (static):
siesta:                Solid            Molecule  Units
siesta:          -0.00664366         -0.00753226  Ry/Bohr**3
siesta:          -0.60999845         -0.69158696  eV/Ang**3
siesta:        -977.33582714      -1108.05643720  kBar

siesta: Total spin polarization (Qup-Qdown) =    0.000000
siesta: Spin vector =    0.000000    0.000000    0.000000
siesta: No SpinPolK block detected...

siesta:                 ==============================
SMEAGOL                 Bias step =    7, V =  0.055 Ry
                            Begin CG move =      0
                        ==============================

superc: Internal auxiliary supercell:     3 x     3 x     1  =       9
superc: Number of atoms, orbitals, and projectors:    675   999  3024

read_ldau The LDA+U method used is from Czyzky PRB 49 14211
 
* Maximum dynamic memory allocated =    20 MB
siesta: reading saved Hamiltonian

iodm: Reading Density Matrix from files

AuC3Au.HM                        
siesta: found saved Hamiltonian

siesta: Program's energy decomposition (eV):
siesta: Eions   =      8455.484436
siesta: Ena     =      6834.600829
siesta: Ekin    =       705.734196
siesta: Enl     =       456.881794
siesta: DEna    =        27.444311
siesta: DUscf   =         1.621200
siesta: DUext   =         0.000000
siesta: Exc     =     -8715.168336
siesta: eta*DQ  =         0.000000
siesta: Emadel  =         0.000000
siesta: Eharris =     -9145.776152
siesta: Eso     =         0.000000
siesta: Etot    =     -9144.370442
siesta: FreeEng =     -9144.370442

siesta: iscf   Eharris(eV)      E_KS(eV)   FreeEng(eV)   dDmax  Ef(eV)
siesta:    1    -9145.7762    -9144.3704    -9144.3704  0.0101  0.0000
siesta:    2    -9140.0804    -9140.4747    -9140.4747  0.4577  0.0000
siesta:    3    -9142.8747    -9144.2728    -9144.2728  0.1965  0.0000
siesta:    4    -9144.3278    -9143.6718    -9143.6718  0.0460  0.0000
siesta:    5    -9144.5944    -9144.2915    -9144.2915  0.0209  0.0000
siesta:    6    -9144.3912    -9144.5758    -9144.5758  0.0097  0.0000
siesta:    7    -9144.3899    -9144.4032    -9144.4032  0.0072  0.0000
siesta:    8    -9144.3775    -9144.3911    -9144.3911  0.0068  0.0000
siesta:    9    -9144.3053    -9144.3785    -9144.3785  0.0060  0.0000
siesta:   10    -9144.2865    -9144.3097    -9144.3097  0.0035  0.0000
siesta:   11    -9144.2987    -9144.2874    -9144.2874  0.0014  0.0000
siesta:   12    -9144.3326    -9144.2980    -9144.2980  0.0011  0.0000
siesta:   13    -9144.3475    -9144.3304    -9144.3304  0.0007  0.0000
siesta:   14    -9144.3497    -9144.3465    -9144.3465  0.0005  0.0000
siesta:   15    -9144.3448    -9144.3493    -9144.3493  0.0004  0.0000
siesta:   16    -9144.3436    -9144.3451    -9144.3451  0.0001  0.0000
 Calculating transmission coefficient

siesta: E_KS(eV) =            -9144.3437

siesta: Atomic forces (eV/Ang):
----------------------------------------
 Tot    0.049106   -0.039158    0.521216
----------------------------------------
 Max   25.663538
 Res    2.885565    sqrt( Sum f_i^2 / 3N )
----------------------------------------
 Max   25.663538    constrained
 
* Maximum dynamic memory allocated =    20 MB

siesta: Program's energy decomposition (eV):
siesta:-Eions   =   -8455.484436
siesta: Ena     =    6834.600829
siesta: Ekin    =     705.910290
siesta: Enl     =     456.642176
siesta: DEna    =      27.474434
siesta: DUscf   =       1.609425
siesta: DUext   =       0.000000
siesta: Exc     =   -8715.096468
siesta: eta*DQ  =       0.000000
siesta: Emadel  =       0.000000
siesta: Ekinion =       0.000000
siesta: Eharris =   -9144.343643
siesta: Eso     =       0.000000
siesta: Etot    =   -9144.343750
siesta: FreeEng =   -9144.343750

siesta: Final energy (eV):
siesta:       Kinetic =     705.910290
siesta:       Hartree =     625.719841
siesta:    Ext. field =       0.000000
siesta:   Exch.-corr. =   -8715.096468
siesta:  Ion-electron =   -1677.437007
siesta:       Ion-ion =     -83.440407
siesta:       Ekinion =       0.000000
siesta:         Total =   -9144.343750

siesta: Atomic forces (eV/Ang):
siesta:    1    0.073973    0.055583   -0.036811
siesta:    2    0.059629   -0.012042   -0.037150
siesta:    3    0.000893    0.079095   -0.036852
siesta:    4   -0.001032   -0.015433   -0.036508
siesta:    5    0.000747   -0.014507   -0.035125
siesta:    6   -0.058006   -0.012159   -0.036636
siesta:    7    0.000930   -0.063234   -0.035612
siesta:    8    0.002671   -0.015199   -0.036731
siesta:    9   -0.072159    0.055734   -0.036528
siesta:   10    0.068311   -0.045781    0.180048
siesta:   11    0.005912    0.026503    0.162047
siesta:   12    0.001027    0.042841    0.176265
siesta:   13    0.058063    0.022774    0.171637
siesta:   14    0.000868   -0.012233    0.173479
siesta:   15   -0.004055    0.026273    0.161863
siesta:   16    0.001026   -0.095333    0.164566
siesta:   17   -0.056194    0.022897    0.172084
siesta:   18   -0.066267   -0.045934    0.180353
siesta:   19    0.035198    0.050392   -0.484691
siesta:   20    0.073875   -0.032078   -0.491162
siesta:   21    0.001105    0.089889   -0.446870
siesta:   22   -0.005019   -0.018394   -0.487024
siesta:   23    0.000852   -0.001941   -0.402661
siesta:   24   -0.071830   -0.032180   -0.490717
siesta:   25    0.001091   -0.030110   -0.467536
siesta:   26    0.006873   -0.018087   -0.487197
siesta:   27   -0.032963    0.050516   -0.484442
siesta:   28    0.073519   -0.025385   -5.817042
siesta:   29    0.022282    0.019036   -5.831997
siesta:   30    0.001162    0.045236   -5.842859
siesta:   31    0.123047   -0.011574   -5.373604
siesta:   32    0.001063    0.058605   -5.381351
siesta:   33   -0.020082    0.018817   -5.832213
siesta:   34    0.001156   -0.115261   -5.795633
siesta:   35   -0.120850   -0.011519   -5.373228
siesta:   36   -0.071218   -0.025529   -5.816836
siesta:   37    0.000070   -0.000209   24.955262
siesta:   38   -0.000015   -0.001076    0.710468
siesta:   39   -0.000010    0.000870  -25.663538
siesta:   40    0.106057   -0.028867    5.870114
siesta:   41    0.005961    0.015330    5.873974
siesta:   42    0.001849    0.061692    5.879518
siesta:   43    0.107749   -0.014418    5.453589
siesta:   44    0.002484    0.067866    5.447187
siesta:   45   -0.002195    0.016383    5.873195
siesta:   46    0.001341   -0.117024    5.867896
siesta:   47   -0.105730   -0.013958    5.453236
siesta:   48   -0.102291   -0.028404    5.870377
siesta:   49    0.038106   -0.004809    0.578933
siesta:   50   -0.007649   -0.046742    0.565007
siesta:   51   -0.038065   -0.003577    0.541850
siesta:   52    0.004052    0.044822    0.542502
siesta:   53    0.062137    0.019404    0.482304
siesta:   54    0.000757   -0.004852    0.539553
siesta:   55   -0.026405    0.001697    0.565441
siesta:   56    0.000739   -0.025319    0.481404
siesta:   57   -0.060505    0.019380    0.482257
siesta:   58    0.047066    0.040164   -0.166886
siesta:   59    0.070951   -0.017018   -0.160480
siesta:   60    0.001101    0.088439   -0.107111
siesta:   61    0.009899   -0.024614   -0.163579
siesta:   62    0.002032   -0.002863   -0.136060
siesta:   63   -0.069280   -0.017685   -0.160163
siesta:   64    0.001475   -0.029924   -0.129762
siesta:   65   -0.007147   -0.025594   -0.163041
siesta:   66   -0.044078    0.039751   -0.166959
siesta:   67    0.063338   -0.049047   -0.055036
siesta:   68    0.013290    0.022853   -0.039776
siesta:   69    0.001522    0.050590   -0.054210
siesta:   70    0.068624    0.016549   -0.039390
siesta:   71    0.001362   -0.000565   -0.040350
siesta:   72   -0.010459    0.022618   -0.039924
siesta:   73    0.001508   -0.088742   -0.039944
siesta:   74   -0.065792    0.016676   -0.039131
siesta:   75   -0.060339   -0.049217   -0.054835
siesta: ----------------------------------------
siesta:  Tot    0.049106   -0.039158    0.521216

siesta: Stress tensor (static) (eV/Ang**3):
siesta:     0.612206    0.000001    0.000088
siesta:     0.000001    0.614346   -0.000003
siesta:     0.000088   -0.000003    0.603706

siesta: Cell volume =       1633.666942 Ang**3

siesta: Pressure (static):
siesta:                Solid            Molecule  Units
siesta:          -0.00664462         -0.00753938  Ry/Bohr**3
siesta:          -0.61008615         -0.69224025  eV/Ang**3
siesta:        -977.47633735      -1109.10313572  kBar

siesta: Total spin polarization (Qup-Qdown) =    0.000000
siesta: Spin vector =    0.000000    0.000000    0.000000
siesta: No SpinPolK block detected...

siesta:                 ==============================
SMEAGOL                 Bias step =    8, V =  0.073 Ry
                            Begin CG move =      0
                        ==============================

superc: Internal auxiliary supercell:     3 x     3 x     1  =       9
superc: Number of atoms, orbitals, and projectors:    675   999  3024

read_ldau The LDA+U method used is from Czyzky PRB 49 14211
 
* Maximum dynamic memory allocated =    20 MB
siesta: reading saved Hamiltonian

iodm: Reading Density Matrix from files

AuC3Au.HM                        
siesta: found saved Hamiltonian

siesta: Program's energy decomposition (eV):
siesta: Eions   =      8455.484436
siesta: Ena     =      6834.600829
siesta: Ekin    =       705.910290
siesta: Enl     =       456.642176
siesta: DEna    =        27.474434
siesta: DUscf   =         1.609425
siesta: DUext   =         0.000000
siesta: Exc     =     -8715.096468
siesta: eta*DQ  =         0.000000
siesta: Emadel  =         0.000000
siesta: Eharris =     -9146.220630
siesta: Eso     =         0.000000
siesta: Etot    =     -9144.343750
siesta: FreeEng =     -9144.343750

siesta: iscf   Eharris(eV)      E_KS(eV)   FreeEng(eV)   dDmax  Ef(eV)
siesta:    1    -9146.2206    -9144.3437    -9144.3437  0.0102  0.0000
siesta:    2    -9138.2169    -9140.4006    -9140.4006  0.5440  0.0000
siesta:    3    -9142.6737    -9142.9612    -9142.9612  0.1593  0.0000
siesta:    4    -9143.9639    -9143.3991    -9143.3991  0.0763  0.0000
siesta:    5    -9144.3828    -9143.9368    -9143.9368  0.0562  0.0000
siesta:    6    -9144.4600    -9144.3630    -9144.3630  0.0241  0.0000
siesta:    7    -9144.2678    -9144.4455    -9144.4455  0.0361  0.0000
siesta:    8    -9144.2643    -9144.2878    -9144.2878  0.0068  0.0000
siesta:    9    -9144.2033    -9144.2656    -9144.2656  0.0065  0.0000
siesta:   10    -9144.1832    -9144.2069    -9144.2069  0.0034  0.0000
siesta:   11    -9144.1987    -9144.1840    -9144.1840  0.0015  0.0000
siesta:   12    -9144.2229    -9144.1981    -9144.1981  0.0013  0.0000
siesta:   13    -9144.2421    -9144.2213    -9144.2213  0.0013  0.0000
siesta:   14    -9144.2482    -9144.2409    -9144.2409  0.0006  0.0000
siesta:   15    -9144.2498    -9144.2477    -9144.2477  0.0005  0.0000
siesta:   16    -9144.2505    -9144.2496    -9144.2496  0.0003  0.0000
siesta:   17    -9144.2474    -9144.2504    -9144.2504  0.0002  0.0000
siesta:   18    -9144.2437    -9144.2475    -9144.2475  0.0002  0.0000
 Calculating transmission coefficient

siesta: E_KS(eV) =            -9144.2439

siesta: Atomic forces (eV/Ang):
----------------------------------------
 Tot    0.049100   -0.039142    0.557184
----------------------------------------
 Max   25.538621
 Res    2.868316    sqrt( Sum f_i^2 / 3N )
----------------------------------------
 Max   25.538621    constrained
 
* Maximum dynamic memory allocated =    20 MB

coxmol: Writing XMOL coordinates into file AuC3Au.xyz              
 siesta: ERROR: PDOS implemented only with diagon

siesta: Program's energy decomposition (eV):
siesta:-Eions   =   -8455.484436
siesta: Ena     =    6834.600829
siesta: Ekin    =     706.177266
siesta: Enl     =     456.398196
siesta: DEna    =      27.495673
siesta: DUscf   =       1.594781
siesta: DUext   =       0.000000
siesta: Exc     =   -8715.026228
siesta: eta*DQ  =       0.000000
siesta: Emadel  =       0.000000
siesta: Ekinion =       0.000000
siesta: Eharris =   -9144.243662
siesta: Eso     =       0.000000
siesta: Etot    =   -9144.243918
siesta: FreeEng =   -9144.243918

siesta: Final energy (eV):
siesta:       Kinetic =     706.177266
siesta:       Hartree =     626.037621
siesta:    Ext. field =       0.000000
siesta:   Exch.-corr. =   -8715.026228
siesta:  Ion-electron =   -1677.992171
siesta:       Ion-ion =     -83.440407
siesta:       Ekinion =       0.000000
siesta:         Total =   -9144.243918

siesta: Atomic forces (eV/Ang):
siesta:    1    0.073959    0.055593   -0.060933
siesta:    2    0.059633   -0.012060   -0.061295
siesta:    3    0.000893    0.079099   -0.061048
siesta:    4   -0.001050   -0.015425   -0.060627
siesta:    5    0.000747   -0.014508   -0.059224
siesta:    6   -0.058010   -0.012178   -0.060786
siesta:    7    0.000930   -0.063234   -0.059660
siesta:    8    0.002689   -0.015191   -0.060848
siesta:    9   -0.072146    0.055746   -0.060645
siesta:   10    0.068237   -0.045914    0.176702
siesta:   11    0.005917    0.026578    0.157970
siesta:   12    0.001041    0.042797    0.172057
siesta:   13    0.058202    0.022592    0.167854
siesta:   14    0.000879   -0.011980    0.169551
siesta:   15   -0.004036    0.026348    0.157757
siesta:   16    0.001002   -0.095077    0.161391
siesta:   17   -0.056345    0.022698    0.168371
siesta:   18   -0.066207   -0.046081    0.176961
siesta:   19    0.035329    0.050233   -0.478163
siesta:   20    0.073826   -0.032008   -0.484695
siesta:   21    0.001082    0.090047   -0.439978
siesta:   22   -0.004876   -0.018365   -0.480464
siesta:   23    0.000893   -0.001917   -0.396727
siesta:   24   -0.071827   -0.032114   -0.484268
siesta:   25    0.001138   -0.030142   -0.461962
siesta:   26    0.006754   -0.018092   -0.480632
siesta:   27   -0.033134    0.050434   -0.477896
siesta:   28    0.072599   -0.025967   -5.805425
siesta:   29    0.022156    0.019153   -5.820525
siesta:   30    0.001182    0.045103   -5.831319
siesta:   31    0.124752   -0.012526   -5.359057
siesta:   32    0.001077    0.060500   -5.366716
siesta:   33   -0.019946    0.018946   -5.820722
siesta:   34    0.001147   -0.114189   -5.784108
siesta:   35   -0.122576   -0.012472   -5.358720
siesta:   36   -0.070312   -0.026144   -5.805196
siesta:   37    0.000076   -0.000210   24.633463
siesta:   38   -0.000016   -0.000998    0.941146
siesta:   39   -0.000011    0.000717  -25.538621
siesta:   40    0.108095   -0.028740    5.884216
siesta:   41    0.005095    0.016061    5.883709
siesta:   42    0.001817    0.061523    5.888968
siesta:   43    0.107034   -0.013011    5.456671
siesta:   44    0.002508    0.065845    5.450514
siesta:   45   -0.001340    0.017150    5.882937
siesta:   46    0.001346   -0.119512    5.881925
siesta:   47   -0.104987   -0.012560    5.456322
siesta:   48   -0.104356   -0.028250    5.884488
siesta:   49    0.038094   -0.008678    0.585626
siesta:   50   -0.011162   -0.045409    0.571331
siesta:   51   -0.039587   -0.003881    0.543248
siesta:   52    0.005553    0.044512    0.543923
siesta:   53    0.065369    0.021460    0.479794
siesta:   54    0.000744   -0.003855    0.541240
siesta:   55   -0.022871    0.003039    0.571782
siesta:   56    0.000762   -0.028556    0.478120
siesta:   57   -0.063732    0.021455    0.479744
siesta:   58    0.046718    0.040448   -0.166846
siesta:   59    0.071009   -0.017457   -0.160326
siesta:   60    0.001101    0.088501   -0.102256
siesta:   61    0.009479   -0.024438   -0.163444
siesta:   62    0.002032   -0.002867   -0.134354
siesta:   63   -0.069339   -0.018125   -0.160007
siesta:   64    0.001475   -0.029910   -0.127946
siesta:   65   -0.006727   -0.025419   -0.162903
siesta:   66   -0.043729    0.040034   -0.166915
siesta:   67    0.063371   -0.049040   -0.057589
siesta:   68    0.013305    0.022842   -0.042264
siesta:   69    0.001523    0.050619   -0.056737
siesta:   70    0.068642    0.016550   -0.041932
siesta:   71    0.001362   -0.000558   -0.042872
siesta:   72   -0.010474    0.022608   -0.042411
siesta:   73    0.001508   -0.088781   -0.042476
siesta:   74   -0.065809    0.016676   -0.041672
siesta:   75   -0.060374   -0.049210   -0.057387
siesta: ----------------------------------------
siesta:  Tot    0.049100   -0.039142    0.557184

siesta: Stress tensor (static) (eV/Ang**3):
siesta:     0.612285    0.000001    0.000088
siesta:     0.000001    0.614427   -0.000004
siesta:     0.000088   -0.000004    0.603634

siesta: Cell volume =       1633.666942 Ang**3

siesta: Pressure (static):
siesta:                Solid            Molecule  Units
siesta:          -0.00664494         -0.00754580  Ry/Bohr**3
siesta:          -0.61011534         -0.69282947  eV/Ang**3
siesta:        -977.52310476      -1110.04718051  kBar

siesta: Total spin polarization (Qup-Qdown) =    0.000000
siesta: Spin vector =    0.000000    0.000000    0.000000
siesta: No SpinPolK block detected...
 
* Maximum dynamic memory allocated : Node    0 =    20 MB
* Maximum dynamic memory allocated : Node    1 =    18 MB
* Maximum dynamic memory allocated : Node    2 =    18 MB
* Maximum dynamic memory allocated : Node    3 =    19 MB
* Maximum dynamic memory allocated : Node    4 =    19 MB
* Maximum dynamic memory allocated : Node    5 =    20 MB
* Maximum dynamic memory allocated : Node    6 =    19 MB
* Maximum dynamic memory allocated : Node    7 =    19 MB
* Maximum memory occured during redistribXZ                   

timer: CPU execution times:
timer:  Routine       Calls   Time/call    Tot.time        %
timer:  siesta            1    1044.790    1044.790   100.00
timer:  Setup             1    4496.450    4496.450   430.37
timer:  bands             1       0.000       0.000     0.00
timer:  writewave         1       0.010       0.010     0.00
timer:  KSV_init          1       0.000       0.000     0.00
timer:  IterMD            9     114.330    1028.970    98.49
timer:  hsparse          10       0.085       0.850     0.08
timer:  overfsm          18       0.067       1.210     0.12
timer:  IterSCF         161       6.368    1025.190    98.12
timer:  kinefsm          18       0.058       1.040     0.10
timer:  nlefsm           18       0.459       8.270     0.79
timer:  DHSCF           164       2.044     335.190    32.08
timer:  DHSCF1            1       1.520       1.520     0.15
timer:  DHSCF2            1       5.320       5.320     0.51
timer:  REORD          1948       0.002       4.460     0.43
timer:  POISON          165       0.615     101.410     9.71
timer:  DHSCF3          164       1.696     278.210    26.63
timer:  rhoofd          164       0.184      30.150     2.89
timer:  CELLXC          164       0.282      46.330     4.43
timer:  vmat            161       0.195      31.330     3.00
timer:  emtrans         161       4.202     676.480    64.75
timer:  NEGFK           644       1.012     651.550    62.36
timer:  NEGFK_su        644       0.085      54.700     5.24
timer:  NEGFK_imag      608       0.250     152.100    14.56
timer:  NEGFK_real      548       0.320     175.570    16.80
timer:  NEGFK_col       608       0.013       7.690     0.74
timer:  DHSCF4            9       5.206      46.850     4.48
timer:  dfscf             9       2.266      20.390     1.95
timer:  TRANSM           36       5.539     199.400    19.09
timer:  CURRENT          36       1.604      57.740     5.53
  
>> End of run:  26-AUG-2013   0:54:20
