 DBCSR| Multiplication driver                                               BLAS
 DBCSR| Multrec recursion limit                                              512
 DBCSR| Multiplication stack size                                           1000
 DBCSR| Maximum elements for images                                    UNLIMITED
 DBCSR| Multiplicative factor virtual images                                   1
 DBCSR| Multiplication size stacks                                             3
 DBCSR| Number of 3D layers                                               SINGLE
 DBCSR| Use MPI memory allocation                                              T
 DBCSR| Use RMA algorithm                                                      F
 DBCSR| Use Communication thread                                               T
 DBCSR| Communication thread load                                             87


  **** **** ******  **  PROGRAM STARTED AT               2022-08-13 06:48:42.305
 ***** ** ***  *** **   PROGRAM STARTED ON              cx3-8-4.cx3.hpc.ic.ac.uk
 **    ****   ******    PROGRAM STARTED BY                                jj1921
 ***** **    ** ** **   PROGRAM PROCESS ID                               2140637
  **** **  *******  **  PROGRAM STARTED IN /rds/general/user/jj1921/home/junctio
                                           n/lateral/lateral_12/wire

 CP2K| version string:                                          CP2K version 6.1
 CP2K| source code revision number:                                    svn:18464
 CP2K| cp2kflags: libint fftw3 parallel mpi3 scalapack has_no_shared_glibc max_c
 CP2K|            ontr=4 mkl
 CP2K| is freely available from                            https://www.cp2k.org/
 CP2K| Program compiled at                          Thu 12 Jul 13:52:12 BST 2018
 CP2K| Program compiled on                                  build-2.hpc.ic.ac.uk
 CP2K| Program compiled for                                   Linux-x86-64-intel
 CP2K| Data directory path                                   /tmp/cp2k/cp2k/data
 CP2K| Input file name                                           Au_junction.inp
 
 GLOBAL| Force Environment number                                              1
 GLOBAL| Basis set file name            /rds/general/user/jj1921/home/BASIS_COM_
 GLOBAL| Potential file name            /rds/general/user/jj1921/home/GTH_POTENT
 GLOBAL| MM Potential file name                                     MM_POTENTIAL
 GLOBAL| Coordinate file name                                      __STD_INPUT__
 GLOBAL| Method name                                                        CP2K
 GLOBAL| Project name                                                Au_junction
 GLOBAL| Preferred FFT library                                             FFTW3
 GLOBAL| Preferred diagonalization lib.                                       SL
 GLOBAL| Run type                                                         ENERGY
 GLOBAL| All-to-all communication in single precision                          F
 GLOBAL| FFTs using library dependent lengths                                  F
 GLOBAL| Global print level                                               MEDIUM
 GLOBAL| Total number of message passing processes                           200
 GLOBAL| Number of threads for this process                                    1
 GLOBAL| This output is from process                                           0
 GLOBAL| CPU model name :  AMD EPYC 7742 64-Core Processor

 MEMORY| system memory details [Kb]
 MEMORY|                        rank 0           min           max       average
 MEMORY| MemTotal           4215149732    4215149732    4215149732    4215149732
 MEMORY| MemFree            4112282604    4112282604    4112282604    4112282604
 MEMORY| Buffers                  1060          1060          1060          1060
 MEMORY| Cached                5920424       5920424       5920424       5920424
 MEMORY| Slab                  2874828       2874828       2874828       2874828
 MEMORY| SReclaimable           744080        744080        744080        744080
 MEMORY| MemLikelyFree      4118948168    4118948168    4118948168    4118948168


 *** Fundamental physical constants (SI units) ***

 *** Literature: B. J. Mohr and B. N. Taylor,
 ***             CODATA recommended values of the fundamental physical
 ***             constants: 2006, Web Version 5.1
 ***             http://physics.nist.gov/constants

 Speed of light in vacuum [m/s]                             2.99792458000000E+08
 Magnetic constant or permeability of vacuum [N/A**2]       1.25663706143592E-06
 Electric constant or permittivity of vacuum [F/m]          8.85418781762039E-12
 Planck constant (h) [J*s]                                  6.62606896000000E-34
 Planck constant (h-bar) [J*s]                              1.05457162825177E-34
 Elementary charge [C]                                      1.60217648700000E-19
 Electron mass [kg]                                         9.10938215000000E-31
 Electron g factor [ ]                                     -2.00231930436220E+00
 Proton mass [kg]                                           1.67262163700000E-27
 Fine-structure constant                                    7.29735253760000E-03
 Rydberg constant [1/m]                                     1.09737315685270E+07
 Avogadro constant [1/mol]                                  6.02214179000000E+23
 Boltzmann constant [J/K]                                   1.38065040000000E-23
 Atomic mass unit [kg]                                      1.66053878200000E-27
 Bohr radius [m]                                            5.29177208590000E-11

 *** Conversion factors ***

 [u] -> [a.u.]                                              1.82288848426455E+03
 [Angstrom] -> [Bohr] = [a.u.]                              1.88972613288564E+00
 [a.u.] = [Bohr] -> [Angstrom]                              5.29177208590000E-01
 [a.u.] -> [s]                                              2.41888432650478E-17
 [a.u.] -> [fs]                                             2.41888432650478E-02
 [a.u.] -> [J]                                              4.35974393937059E-18
 [a.u.] -> [N]                                              8.23872205491840E-08
 [a.u.] -> [K]                                              3.15774647902944E+05
 [a.u.] -> [kJ/mol]                                         2.62549961709828E+03
 [a.u.] -> [kcal/mol]                                       6.27509468713739E+02
 [a.u.] -> [Pa]                                             2.94210107994716E+13
 [a.u.] -> [bar]                                            2.94210107994716E+08
 [a.u.] -> [atm]                                            2.90362800883016E+08
 [a.u.] -> [eV]                                             2.72113838565563E+01
 [a.u.] -> [Hz]                                             6.57968392072181E+15
 [a.u.] -> [1/cm] (wave numbers)                            2.19474631370540E+05
 [a.u./Bohr**2] -> [1/cm]                                   5.14048714338585E+03
 

 CELL_TOP| Volume [angstrom^3]:                                        34631.098
 CELL_TOP| Vector a [angstrom    35.624     0.000     0.000    |a| =      35.624
 CELL_TOP| Vector b [angstrom     0.000    30.851     0.000    |b| =      30.851
 CELL_TOP| Vector c [angstrom     0.000     0.000    31.511    |c| =      31.511
 CELL_TOP| Angle (b,c), alpha [degree]:                                   90.000
 CELL_TOP| Angle (a,c), beta  [degree]:                                   90.000
 CELL_TOP| Angle (a,b), gamma [degree]:                                   90.000
 CELL_TOP| Requested initial symmetry:                              ORTHORHOMBIC
 CELL_TOP| Numerically orthorhombic:                                         YES
 
 GENERATE|  Preliminary Number of Bonds generated:                             0
 GENERATE|  Achieved consistency in connectivity generation.

 CELL| Volume [angstrom^3]:                                            34631.098
 CELL| Vector a [angstrom]:      35.624     0.000     0.000    |a| =      35.624
 CELL| Vector b [angstrom]:       0.000    30.851     0.000    |b| =      30.851
 CELL| Vector c [angstrom]:       0.000     0.000    31.511    |c| =      31.511
 CELL| Angle (b,c), alpha [degree]:                                       90.000
 CELL| Angle (a,c), beta  [degree]:                                       90.000
 CELL| Angle (a,b), gamma [degree]:                                       90.000
 CELL| Requested initial symmetry:                                  ORTHORHOMBIC
 CELL| Numerically orthorhombic:                                             YES

 CELL_REF| Volume [angstrom^3]:                                        34631.098
 CELL_REF| Vector a [angstrom    35.624     0.000     0.000    |a| =      35.624
 CELL_REF| Vector b [angstrom     0.000    30.851     0.000    |b| =      30.851
 CELL_REF| Vector c [angstrom     0.000     0.000    31.511    |c| =      31.511
 CELL_REF| Angle (b,c), alpha [degree]:                                   90.000
 CELL_REF| Angle (a,c), beta  [degree]:                                   90.000
 CELL_REF| Angle (a,b), gamma [degree]:                                   90.000
 CELL_REF| Requested initial symmetry:                              ORTHORHOMBIC
 CELL_REF| Numerically orthorhombic:                                         YES

 *** WARNING in cryssym.F:163 :: Symmetry library SPGLIB not available ***


 *******************************************************************************
                                    Kpoints
 *******************************************************************************
 BRILLOUIN| K-point scheme                                        Monkhorst-Pack
 BRILLOUIN| K-Point grid                                             2    2    1
 BRILLOUIN| Accuracy in Symmetry determination                      0.100000E-05
 BRILLOUIN| K-Point point group symmetrization                               OFF
 BRILLOUIN| Wavefunction type                                            COMPLEX
 BRILLOUIN| Use full k-point grid     
 BRILLOUIN| List of Kpoints [2 Pi/Bohr]                                        4
 BRILLOUIN| Number           Weight            X              Y              Z
 BRILLOUIN|     1           0.25000       -0.25000       -0.25000        0.00000
 BRILLOUIN|     2           0.25000       -0.25000        0.25000        0.00000
 BRILLOUIN|     3           0.25000        0.25000       -0.25000        0.00000
 BRILLOUIN|     4           0.25000        0.25000        0.25000        0.00000
 *******************************************************************************

 *******************************************************************************
 *******************************************************************************
 **                                                                           **
 **     #####                         ##              ##                      **
 **    ##   ##            ##          ##              ##                      **
 **   ##     ##                       ##            ######                    **
 **   ##     ##  ##   ##  ##   #####  ##  ##   ####   ##    #####    #####    **
 **   ##     ##  ##   ##  ##  ##      ## ##   ##      ##   ##   ##  ##   ##   **
 **   ##  ## ##  ##   ##  ##  ##      ####     ###    ##   ######   ######    **
 **    ##  ###   ##   ##  ##  ##      ## ##      ##   ##   ##       ##        **
 **     #######   #####   ##   #####  ##  ##  ####    ##    #####   ##        **
 **           ##                                                    ##        **
 **                                                                           **
 **                                                ... make the atoms dance   **
 **                                                                           **
 **            Copyright (C) by CP2K developers group (2000 - 2018)           **
 **                                                                           **
 *******************************************************************************

 DFT| Spin restricted Kohn-Sham (RKS) calculation                            RKS
 DFT| Multiplicity                                                             1
 DFT| Number of spin states                                                    1
 DFT| Charge                                                                   0
 DFT| Self-interaction correction (SIC)                                       NO
 DFT| Cutoffs: density                                              1.000000E-10
 DFT|          gradient                                             1.000000E-10
 DFT|          tau                                                  1.000000E-10
 DFT|          cutoff_smoothing_range                               0.000000E+00
 DFT| XC density smoothing                                                  NONE
 DFT| XC derivatives                                                          PW
 FUNCTIONAL| ROUTINE=NEW
 FUNCTIONAL| PBE:
 FUNCTIONAL| J.P.Perdew, K.Burke, M.Ernzerhof, Phys. Rev. Letter, vol. 77, n 18,
 FUNCTIONAL|  pp. 3865-3868, (1996){spin unpolarized}                           

 QS| Method:                                                                 GPW
 QS| Density plane wave grid type                        NON-SPHERICAL FULLSPACE
 QS| Number of grid levels:                                                    4
 QS| Density cutoff [a.u.]:                                                250.0
 QS| Multi grid cutoff [a.u.]: 1) grid level                               250.0
 QS|                           2) grid level                                83.3
 QS|                           3) grid level                                27.8
 QS|                           4) grid level                                 9.3
 QS| Grid level progression factor:                                          3.0
 QS| Relative density cutoff [a.u.]:                                        20.0
 QS| Consistent realspace mapping and integration 
 QS| Interaction thresholds: eps_pgf_orb:                                1.0E-07
 QS|                         eps_filter_matrix:                          0.0E+00
 QS|                         eps_core_charge:                            1.0E-16
 QS|                         eps_rho_gspace:                             1.0E-14
 QS|                         eps_rho_rspace:                             1.0E-14
 QS|                         eps_gvg_rspace:                             1.0E-07
 QS|                         eps_ppl:                                    1.0E-02
 QS|                         eps_ppnl:                                   1.0E-09


 ATOMIC KIND INFORMATION

  1. Atomic kind: Au                                    Number of atoms:      12

     Orbital Basis Set                                    TZVP-MOLOPT-SR-GTH-q11

       Number of orbital shell sets:                                           1
       Number of orbital shells:                                              10
       Number of primitive Cartesian functions:                                5
       Number of Cartesian basis functions:                                   40
       Number of spherical basis functions:                                   34
       Norm type:                                                              2

       Normalised Cartesian orbitals:

                        Set   Shell   Orbital            Exponent    Coefficient

                          1       1    2s                2.950008       0.049750
                                                         1.563057       0.267328
                                                         0.666664      -0.551598
                                                         0.251083       0.072002
                                                         0.081714       0.114867

                          1       2    3s                2.950008      -0.078739
                                                         1.563057       0.378930
                                                         0.666664      -0.110770
                                                         0.251083      -0.245520
                                                         0.081714      -0.004637

                          1       3    4s                2.950008      -0.053770
                                                         1.563057      -0.237101
                                                         0.666664       0.396801
                                                         0.251083      -0.074391
                                                         0.081714       0.097129

                          1       4    3px               2.950008      -0.287410
                                                         1.563057      -0.046810
                                                         0.666664       0.090038
                                                         0.251083       0.061414
                                                         0.081714       0.048416
                          1       4    3py               2.950008      -0.287410
                                                         1.563057      -0.046810
                                                         0.666664       0.090038
                                                         0.251083       0.061414
                                                         0.081714       0.048416
                          1       4    3pz               2.950008      -0.287410
                                                         1.563057      -0.046810
                                                         0.666664       0.090038
                                                         0.251083       0.061414
                                                         0.081714       0.048416

                          1       5    4px               2.950008      -0.031230
                                                         1.563057      -0.259325
                                                         0.666664       0.363713
                                                         0.251083      -0.386040
                                                         0.081714       0.025850
                          1       5    4py               2.950008      -0.031230
                                                         1.563057      -0.259325
                                                         0.666664       0.363713
                                                         0.251083      -0.386040
                                                         0.081714       0.025850
                          1       5    4pz               2.950008      -0.031230
                                                         1.563057      -0.259325
                                                         0.666664       0.363713
                                                         0.251083      -0.386040
                                                         0.081714       0.025850

                          1       6    5px               2.950008      -0.634652
                                                         1.563057      -0.963299
                                                         0.666664       0.995880
                                                         0.251083       0.070517
                                                         0.081714      -0.016209
                          1       6    5py               2.950008      -0.634652
                                                         1.563057      -0.963299
                                                         0.666664       0.995880
                                                         0.251083       0.070517
                                                         0.081714      -0.016209
                          1       6    5pz               2.950008      -0.634652
                                                         1.563057      -0.963299
                                                         0.666664       0.995880
                                                         0.251083       0.070517
                                                         0.081714      -0.016209

                          1       7    4dx2              2.950008       0.572996
                                                         1.563057       0.322251
                                                         0.666664       0.300173
                                                         0.251083       0.099388
                                                         0.081714      -0.001351
                          1       7    4dxy              2.950008       0.992458
                                                         1.563057       0.558156
                                                         0.666664       0.519915
                                                         0.251083       0.172145
                                                         0.081714      -0.002339
                          1       7    4dxz              2.950008       0.992458
                                                         1.563057       0.558156
                                                         0.666664       0.519915
                                                         0.251083       0.172145
                                                         0.081714      -0.002339
                          1       7    4dy2              2.950008       0.572996
                                                         1.563057       0.322251
                                                         0.666664       0.300173
                                                         0.251083       0.099388
                                                         0.081714      -0.001351
                          1       7    4dyz              2.950008       0.992458
                                                         1.563057       0.558156
                                                         0.666664       0.519915
                                                         0.251083       0.172145
                                                         0.081714      -0.002339
                          1       7    4dz2              2.950008       0.572996
                                                         1.563057       0.322251
                                                         0.666664       0.300173
                                                         0.251083       0.099388
                                                         0.081714      -0.001351

                          1       8    5dx2              2.950008      -0.221363
                                                         1.563057      -0.288021
                                                         0.666664      -0.277201
                                                         0.251083       0.041335
                                                         0.081714       0.017516
                          1       8    5dxy              2.950008      -0.383413
                                                         1.563057      -0.498867
                                                         0.666664      -0.480127
                                                         0.251083       0.071593
                                                         0.081714       0.030338
                          1       8    5dxz              2.950008      -0.383413
                                                         1.563057      -0.498867
                                                         0.666664      -0.480127
                                                         0.251083       0.071593
                                                         0.081714       0.030338
                          1       8    5dy2              2.950008      -0.221363
                                                         1.563057      -0.288021
                                                         0.666664      -0.277201
                                                         0.251083       0.041335
                                                         0.081714       0.017516
                          1       8    5dyz              2.950008      -0.383413
                                                         1.563057      -0.498867
                                                         0.666664      -0.480127
                                                         0.251083       0.071593
                                                         0.081714       0.030338
                          1       8    5dz2              2.950008      -0.221363
                                                         1.563057      -0.288021
                                                         0.666664      -0.277201
                                                         0.251083       0.041335
                                                         0.081714       0.017516

                          1       9    6dx2              2.950008      -1.281149
                                                         1.563057       2.633116
                                                         0.666664       0.400943
                                                         0.251083      -0.047276
                                                         0.081714       0.007642
                          1       9    6dxy              2.950008      -2.219015
                                                         1.563057       4.560691
                                                         0.666664       0.694454
                                                         0.251083      -0.081884
                                                         0.081714       0.013236
                          1       9    6dxz              2.950008      -2.219015
                                                         1.563057       4.560691
                                                         0.666664       0.694454
                                                         0.251083      -0.081884
                                                         0.081714       0.013236
                          1       9    6dy2              2.950008      -1.281149
                                                         1.563057       2.633116
                                                         0.666664       0.400943
                                                         0.251083      -0.047276
                                                         0.081714       0.007642
                          1       9    6dyz              2.950008      -2.219015
                                                         1.563057       4.560691
                                                         0.666664       0.694454
                                                         0.251083      -0.081884
                                                         0.081714       0.013236
                          1       9    6dz2              2.950008      -1.281149
                                                         1.563057       2.633116
                                                         0.666664       0.400943
                                                         0.251083      -0.047276
                                                         0.081714       0.007642

                          1      10    5fx3              2.950008      -0.471653
                                                         1.563057       0.476248
                                                         0.666664      -0.241506
                                                         0.251083      -0.039345
                                                         0.081714      -0.001389
                          1      10    5fx2y             2.950008      -1.054649
                                                         1.563057       1.064923
                                                         0.666664      -0.540024
                                                         0.251083      -0.087977
                                                         0.081714      -0.003106
                          1      10    5fx2z             2.950008      -1.054649
                                                         1.563057       1.064923
                                                         0.666664      -0.540024
                                                         0.251083      -0.087977
                                                         0.081714      -0.003106
                          1      10    5fxy2             2.950008      -1.054649
                                                         1.563057       1.064923
                                                         0.666664      -0.540024
                                                         0.251083      -0.087977
                                                         0.081714      -0.003106
                          1      10    5fxyz             2.950008      -1.826705
                                                         1.563057       1.844501
                                                         0.666664      -0.935348
                                                         0.251083      -0.152381
                                                         0.081714      -0.005380
                          1      10    5fxz2             2.950008      -1.054649
                                                         1.563057       1.064923
                                                         0.666664      -0.540024
                                                         0.251083      -0.087977
                                                         0.081714      -0.003106
                          1      10    5fy3              2.950008      -0.471653
                                                         1.563057       0.476248
                                                         0.666664      -0.241506
                                                         0.251083      -0.039345
                                                         0.081714      -0.001389
                          1      10    5fy2z             2.950008      -1.054649
                                                         1.563057       1.064923
                                                         0.666664      -0.540024
                                                         0.251083      -0.087977
                                                         0.081714      -0.003106
                          1      10    5fyz2             2.950008      -1.054649
                                                         1.563057       1.064923
                                                         0.666664      -0.540024
                                                         0.251083      -0.087977
                                                         0.081714      -0.003106
                          1      10    5fz3              2.950008      -0.471653
                                                         1.563057       0.476248
                                                         0.666664      -0.241506
                                                         0.251083      -0.039345
                                                         0.081714      -0.001389

     GTH Potential information for                                   GTH-PBE-q11

       Description:                       Goedecker-Teter-Hutter pseudopotential
                                           Goedecker et al., PRB 54, 1703 (1996)
                                          Hartwigsen et al., PRB 58, 3641 (1998)
                                                      Krack, TCA 114, 145 (2005)

       Gaussian exponent of the core charge distribution:               1.436369
       Electronic configuration (s p d ...):                           1   0  10

       Parameters of the local part of the GTH pseudopotential:

                          rloc        C1          C2          C3          C4
                        0.590000   10.517179

       Parameters of the non-local part of the GTH pseudopotential:

                   l      r(l)      h(i,j,l)

                   0    0.543847    5.786811   -2.250680
                                   -2.250680    2.905615
                   1    0.609173    4.284049   -4.071285
                                   -4.071285    4.817210
                   2    0.437309   -7.403281    3.010193
                                    3.010193   -3.413238


 MOLECULE KIND INFORMATION


 All atoms are their own molecule, skipping detailed information


 TOTAL NUMBERS AND MAXIMUM NUMBERS

  Total number of            - Atomic kinds:                                   1
                             - Atoms:                                         12
                             - Shell sets:                                    12
                             - Shells:                                       120
                             - Primitive Cartesian functions:                 60
                             - Cartesian basis functions:                    480
                             - Spherical basis functions:                    408

  Maximum angular momentum of- Orbital basis functions:                        3
                             - Local part of the GTH pseudopotential:          0
                             - Non-local part of the GTH pseudopotential:      4


 MODULE QUICKSTEP:  ATOMIC COORDINATES IN angstrom

  Atom  Kind  Element       X           Y           Z          Z(eff)       Mass

       1     1 Au  79   14.843232   13.711590    7.271669     11.00     196.9666
       2     1 Au  79   17.811878   13.711590    7.271669     11.00     196.9666
       3     1 Au  79   16.327555   16.282514    7.271669     11.00     196.9666
       4     1 Au  79   16.327555   14.568565    9.695559     11.00     196.9666
       5     1 Au  79   16.327555   14.568565   12.119448     11.00     196.9666
       6     1 Au  79   16.327555   14.568565   14.543338     11.00     196.9666
       7     1 Au  79   16.327555   14.568565   16.967227     11.00     196.9666
       8     1 Au  79   16.327555   14.568565   19.391117     11.00     196.9666
       9     1 Au  79   16.327555   14.568565   21.815007     11.00     196.9666
      10     1 Au  79   16.327555   12.854616   24.238896     11.00     196.9666
      11     1 Au  79   14.843232   15.425539   24.238896     11.00     196.9666
      12     1 Au  79   17.811878   15.425539   24.238896     11.00     196.9666




 SCF PARAMETERS         Density guess:                                    ATOMIC
                        --------------------------------------------------------
                        max_scf:                                             500
                        max_scf_history:                                       0
                        max_diis:                                              4
                        --------------------------------------------------------
                        eps_scf:                                        1.00E-07
                        eps_scf_history:                                0.00E+00
                        eps_diis:                                       1.00E-01
                        eps_eigval:                                     1.00E-05
                        --------------------------------------------------------
                        level_shift [a.u.]:                                 0.00
                        added MOs                                        20    0
                        --------------------------------------------------------
                        Mixing method:                            BROYDEN_MIXING
                                                charge density mixing in g-space
                        --------------------------------------------------------
                        Smear method:                                FERMI_DIRAC
                        Electronic temperature [K]:                        300.0
                        Electronic temperature [a.u.]:                  9.50E-04
                        Accuracy threshold:                             1.00E-10
                        --------------------------------------------------------
                        No outer SCF

 PW_GRID| Information for grid number                                          1
 PW_GRID| Grid distributed over                                   200 processors
 PW_GRID| Real space group dimensions                                   200    1
 PW_GRID| the grid is blocked:                                                NO
 PW_GRID| Cutoff [a.u.]                                                    250.0
 PW_GRID| spherical cutoff:                                                   NO
 PW_GRID|   Bounds   1           -240     239                Points:         480
 PW_GRID|   Bounds   2           -216     215                Points:         432
 PW_GRID|   Bounds   3           -216     215                Points:         432
 PW_GRID| Volume element (a.u.^3)  0.2609E-02     Volume (a.u.^3)    233702.2355
 PW_GRID| Grid span                                                    FULLSPACE
 PW_GRID|   Distribution                         Average         Max         Min
 PW_GRID|   G-Vectors                           447897.6      448320      447840
 PW_GRID|   G-Rays                                 933.1         934         933
 PW_GRID|   Real Space Points                   447897.6      559872      373248

 PW_GRID| Information for grid number                                          2
 PW_GRID| Grid distributed over                                   200 processors
 PW_GRID| Real space group dimensions                                   200    1
 PW_GRID| the grid is blocked:                                                NO
 PW_GRID| Cutoff [a.u.]                                                     83.3
 PW_GRID| spherical cutoff:                                                   NO
 PW_GRID|   Bounds   1           -144     143                Points:         288
 PW_GRID|   Bounds   2           -120     119                Points:         240
 PW_GRID|   Bounds   3           -128     127                Points:         256
 PW_GRID| Volume element (a.u.^3)  0.1321E-01     Volume (a.u.^3)    233702.2355
 PW_GRID| Grid span                                                    FULLSPACE
 PW_GRID|   Distribution                         Average         Max         Min
 PW_GRID|   G-Vectors                            88473.6       89856       87552
 PW_GRID|   G-Rays                                 307.2         312         304
 PW_GRID|   Real Space Points                    88473.6      122880       61440

 PW_GRID| Information for grid number                                          3
 PW_GRID| Grid distributed over                                   200 processors
 PW_GRID| Real space group dimensions                                    10   20
 PW_GRID| the grid is blocked:                                                NO
 PW_GRID| Cutoff [a.u.]                                                     27.8
 PW_GRID| spherical cutoff:                                                   NO
 PW_GRID|   Bounds   1            -80      79                Points:         160
 PW_GRID|   Bounds   2            -72      71                Points:         144
 PW_GRID|   Bounds   3            -72      71                Points:         144
 PW_GRID| Volume element (a.u.^3)  0.7044E-01     Volume (a.u.^3)    233702.2355
 PW_GRID| Grid span                                                    FULLSPACE
 PW_GRID|   Distribution                         Average         Max         Min
 PW_GRID|   G-Vectors                            16588.8       16960       16320
 PW_GRID|   G-Rays                                 103.7         106         102
 PW_GRID|   Real Space Points                    16588.8       18432       16128

 PW_GRID| Information for grid number                                          4
 PW_GRID| Grid distributed over                                   200 processors
 PW_GRID| Real space group dimensions                                    10   20
 PW_GRID| the grid is blocked:                                                NO
 PW_GRID| Cutoff [a.u.]                                                      9.3
 PW_GRID| spherical cutoff:                                                   NO
 PW_GRID|   Bounds   1            -48      47                Points:          96
 PW_GRID|   Bounds   2            -40      39                Points:          80
 PW_GRID|   Bounds   3            -40      40                Points:          81
 PW_GRID| Volume element (a.u.^3)  0.3757         Volume (a.u.^3)    233702.2355
 PW_GRID| Grid span                                                    FULLSPACE
 PW_GRID|   Distribution                         Average         Max         Min
 PW_GRID|   G-Vectors                             3110.4        3168        3072
 PW_GRID|   G-Rays                                  32.4          33          32
 PW_GRID|   Real Space Points                     3110.4        3240        2916

 POISSON| Solver                                                        PERIODIC
 POISSON| Periodicity                                                        XYZ

 RS_GRID| Information for grid number                                          1
 RS_GRID|   Bounds   1           -240     239                Points:         480
 RS_GRID|   Bounds   2           -216     215                Points:         432
 RS_GRID|   Bounds   3           -216     215                Points:         432
 RS_GRID| Real space distribution over                                  8 groups
 RS_GRID| Real space distribution along direction                              1
 RS_GRID| Border size                                                         39
 RS_GRID| Real space distribution over                                  5 groups
 RS_GRID| Real space distribution along direction                              2
 RS_GRID| Border size                                                         39
 RS_GRID| Real space distribution over                                  5 groups
 RS_GRID| Real space distribution along direction                              3
 RS_GRID| Border size                                                         39
 RS_GRID|   Distribution                         Average         Max         Min
 RS_GRID|   Planes                                 138.0         138         138
 RS_GRID|   Distribution                         Average         Max         Min
 RS_GRID|   Planes                                 164.4         165         164
 RS_GRID|   Distribution                         Average         Max         Min
 RS_GRID|   Planes                                 164.4         165         164

 RS_GRID| Information for grid number                                          2
 RS_GRID|   Bounds   1           -144     143                Points:         288
 RS_GRID|   Bounds   2           -120     119                Points:         240
 RS_GRID|   Bounds   3           -128     127                Points:         256
 RS_GRID| Real space distribution over                                  8 groups
 RS_GRID| Real space distribution along direction                              1
 RS_GRID| Border size                                                         24
 RS_GRID| Real space distribution over                                  5 groups
 RS_GRID| Real space distribution along direction                              2
 RS_GRID| Border size                                                         24
 RS_GRID| Real space distribution over                                  5 groups
 RS_GRID| Real space distribution along direction                              3
 RS_GRID| Border size                                                         24
 RS_GRID|   Distribution                         Average         Max         Min
 RS_GRID|   Planes                                  84.0          84          84
 RS_GRID|   Distribution                         Average         Max         Min
 RS_GRID|   Planes                                  96.0          96          96
 RS_GRID|   Distribution                         Average         Max         Min
 RS_GRID|   Planes                                  99.2         100          99

 RS_GRID| Information for grid number                                          3
 RS_GRID|   Bounds   1            -80      79                Points:         160
 RS_GRID|   Bounds   2            -72      71                Points:         144
 RS_GRID|   Bounds   3            -72      71                Points:         144
 RS_GRID| Real space fully replicated
 RS_GRID| Group size                                                           1

 RS_GRID| Information for grid number                                          4
 RS_GRID|   Bounds   1            -48      47                Points:          96
 RS_GRID|   Bounds   2            -40      39                Points:          80
 RS_GRID|   Bounds   3            -40      40                Points:          81
 RS_GRID| Real space fully replicated
 RS_GRID| Group size                                                           1
 
 KPOINTS| Number of kpoint groups                                              4
 KPOINTS| Size of each kpoint group                                           50
 KPOINTS| Number of kpoints per group                                          1

 Number of electrons:                                                        132
 Number of occupied orbitals:                                                 66
 Number of molecular orbitals:                                                86

 Number of orbital functions:                                                408
 Number of independent orbital functions:                                    408

 Extrapolation method: initial_guess

 Atomic guess: The first density matrix is obtained in terms of atomic orbitals
               and electronic configurations assigned to each atomic kind

 Guess for atomic kind: Au

 Electronic structure
    Total number of core electrons                                         68.00
    Total number of valence electrons                                      11.00
    Total number of electrons                                              79.00
    Multiplicity                                                   not specified
    S   [  2.00  2.00  2.00  2.00  2.00] 1.00
    P   [  6.00  6.00  6.00  6.00]
    D   [ 10.00 10.00]10.00
    F   [ 14.00]
 

 *******************************************************************************
                  Iteration          Convergence                     Energy [au]
 *******************************************************************************
                          1         4.82062                     -29.858923021251
                          2         9.74282                     -21.505180762611
                          3        0.668139                     -32.871344772047
                          4        0.275835                     -32.923503906735
                          5        0.117591                     -32.928907950392
                          6        0.284438E-02                 -32.930060747725
                          7        0.102403E-03                 -32.930061417487
                          8        0.256606E-07                 -32.930061418346

 Energy components [Hartree]           Total Energy ::          -32.930061418346
                                        Band Energy ::           -2.476378331586
                                     Kinetic Energy ::           24.393681946408
                                   Potential Energy ::          -57.323743364755
                                      Virial (-V/T) ::            2.349942230562
                                        Core Energy ::          -59.878567251407
                                          XC Energy ::           -5.077084241289
                                     Coulomb Energy ::           32.025590074350
                       Total Pseudopotential Energy ::          -84.375612584754
                       Local Pseudopotential Energy ::          -67.274282149935
                    Nonlocal Pseudopotential Energy ::          -17.101330434819
                                        Confinement ::            1.033633869382

 Orbital energies  State     L     Occupation   Energy[a.u.]          Energy[eV]

                       1     0          1.000      -0.187957           -5.114562
 
                       1     2         10.000      -0.228842           -6.227112
 

 Total Electron Density at R=0:                                         0.000023
 Re-scaling the density matrix to get the right number of electrons
                  # Electrons              Trace(P)               Scaling factor
                          132               132.000                        1.000


 SCF WAVEFUNCTION OPTIMIZATION

  Step     Update method      Time    Convergence         Total energy    Change
  ------------------------------------------------------------------------------
     1 NoMix/Diag. 0.40E+00    3.8     0.20374051      -398.1176881618 -3.98E+02
     2 Broy./Diag. 0.40E+00    5.3     0.14718221      -402.9041534803 -4.79E+00
     3 Broy./Diag. 0.40E+00    5.4     0.13422369      -399.2959558428  3.61E+00
     4 Broy./Diag. 0.40E+00    5.5     0.13523654      -397.5325256659  1.76E+00
     5 Broy./Diag. 0.40E+00    5.6     0.02695753      -398.2760014068 -7.43E-01
     6 Broy./Diag. 0.40E+00    5.6     0.00782759      -398.4041251847 -1.28E-01
     7 Broy./Diag. 0.40E+00    5.8     0.01460820      -398.3665161238  3.76E-02
     8 Broy./Diag. 0.40E+00    6.0     0.02384596      -398.3121519361  5.44E-02
     9 Broy./Diag. 0.40E+00    5.9     0.01407622      -398.3230604864 -1.09E-02
    10 Broy./Diag. 0.40E+00    6.1     0.00447272      -398.3360805079 -1.30E-02
    11 Broy./Diag. 0.40E+00    6.1     0.00652830      -398.3236484597  1.24E-02
    12 Broy./Diag. 0.40E+00    6.1     0.00522022      -398.3258257943 -2.18E-03
    13 Broy./Diag. 0.40E+00    6.1     0.00134826      -398.3250351386  7.91E-04
    14 Broy./Diag. 0.40E+00    6.0     0.00174398      -398.3241768987  8.58E-04
    15 Broy./Diag. 0.40E+00    6.1     0.00241366      -398.3233926981  7.84E-04
    16 Broy./Diag. 0.40E+00    6.0     0.00174147      -398.3253227997 -1.93E-03
    17 Broy./Diag. 0.40E+00    6.1     0.00128232      -398.3286022368 -3.28E-03
    18 Broy./Diag. 0.40E+00    6.1     0.00064336      -398.3255652029  3.04E-03
    19 Broy./Diag. 0.40E+00    6.1     0.00080069      -398.3275494867 -1.98E-03
    20 Broy./Diag. 0.40E+00    6.3     0.00139279      -398.3274703065  7.92E-05
    21 Broy./Diag. 0.40E+00    6.0     0.00103292      -398.3267037928  7.67E-04
    22 Broy./Diag. 0.40E+00    6.1     0.00050301      -398.3271139362 -4.10E-04
    23 Broy./Diag. 0.40E+00    6.1     0.00038442      -398.3270245232  8.94E-05
    24 Broy./Diag. 0.40E+00    6.0     0.00013648      -398.3268027966  2.22E-04
    25 Broy./Diag. 0.40E+00    6.1     0.00022816      -398.3267886019  1.42E-05
    26 Broy./Diag. 0.40E+00    6.1     0.00021736      -398.3269471644 -1.59E-04
    27 Broy./Diag. 0.40E+00    6.1     0.00014035      -398.3269570078 -9.84E-06
    28 Broy./Diag. 0.40E+00    6.1     0.00011045      -398.3265711611  3.86E-04
    29 Broy./Diag. 0.40E+00    6.1     0.00005669      -398.3269707030 -4.00E-04
    30 Broy./Diag. 0.40E+00    6.0     0.00009900      -398.3268881175  8.26E-05
    31 Broy./Diag. 0.40E+00    6.1     0.00009645      -398.3268275753  6.05E-05
    32 Broy./Diag. 0.40E+00    6.3     0.00007027      -398.3268310662 -3.49E-06
    33 Broy./Diag. 0.40E+00    6.0     0.00005789      -398.3267853079  4.58E-05
    34 Broy./Diag. 0.40E+00    6.0     0.00004805      -398.3267709994  1.43E-05
    35 Broy./Diag. 0.40E+00    6.0     0.00004662      -398.3267875172 -1.65E-05
    36 Broy./Diag. 0.40E+00    6.0     0.00004154      -398.3267600899  2.74E-05
    37 Broy./Diag. 0.40E+00    6.0     0.00003433      -398.3267836294 -2.35E-05
    38 Broy./Diag. 0.40E+00    6.0     0.00002227      -398.3267798335  3.80E-06
    39 Broy./Diag. 0.40E+00    6.1     0.00001661      -398.3267232814  5.66E-05
    40 Broy./Diag. 0.40E+00    6.0     0.00000692      -398.3267834299 -6.01E-05
    41 Broy./Diag. 0.40E+00    6.0     0.00001505      -398.3267720608  1.14E-05
    42 Broy./Diag. 0.40E+00    6.0     0.00001767      -398.3267609756  1.11E-05
    43 Broy./Diag. 0.40E+00    6.0     0.00000861      -398.3267657107 -4.74E-06
    44 Broy./Diag. 0.40E+00    6.3     0.00000989      -398.3267630278  2.68E-06
    45 Broy./Diag. 0.40E+00    6.1     0.00000783      -398.3267591649  3.86E-06
    46 Broy./Diag. 0.40E+00    6.0     0.00000591      -398.3267625249 -3.36E-06
    47 Broy./Diag. 0.40E+00    6.1     0.00000496      -398.3267587972  3.73E-06
    48 Broy./Diag. 0.40E+00    6.0     0.00000275      -398.3267604176 -1.62E-06
    49 Broy./Diag. 0.40E+00    6.1     0.00000194      -398.3267651882 -4.77E-06
    50 Broy./Diag. 0.40E+00    6.0     0.00000121      -398.3267579199  7.27E-06
    51 Broy./Diag. 0.40E+00    6.1     0.00000238      -398.3267614213 -3.50E-06
    52 Broy./Diag. 0.40E+00    6.0     0.00000277      -398.3267617766 -3.55E-07
    53 Broy./Diag. 0.40E+00    6.0     0.00000152      -398.3267610693  7.07E-07
    54 Broy./Diag. 0.40E+00    6.1     0.00000168      -398.3267611879 -1.19E-07
    55 Broy./Diag. 0.40E+00    6.0     0.00000123      -398.3267611260  6.18E-08
    56 Broy./Diag. 0.40E+00    6.2     0.00000095      -398.3267600414  1.08E-06
    57 Broy./Diag. 0.40E+00    6.1     0.00000113      -398.3267604072 -3.66E-07
    58 Broy./Diag. 0.40E+00    6.0     0.00000075      -398.3267600298  3.77E-07
    59 Broy./Diag. 0.40E+00    6.1     0.00000065      -398.3267591827  8.47E-07
    60 Broy./Diag. 0.40E+00    6.0     0.00000031      -398.3267601431 -9.60E-07
    61 Broy./Diag. 0.40E+00    6.0     0.00000052      -398.3267591802  9.63E-07
    62 Broy./Diag. 0.40E+00    6.0     0.00000077      -398.3267599643 -7.84E-07
    63 Broy./Diag. 0.40E+00    6.0     0.00000047      -398.3267596022  3.62E-07
    64 Broy./Diag. 0.40E+00    6.0     0.00000048      -398.3267595145  8.76E-08
    65 Broy./Diag. 0.40E+00    6.0     0.00000037      -398.3267595633 -4.88E-08
    66 Broy./Diag. 0.40E+00    6.0     0.00000023      -398.3267596512 -8.79E-08
    67 Broy./Diag. 0.40E+00    6.0     0.00000029      -398.3267596544 -3.17E-09
    68 Broy./Diag. 0.40E+00    6.1     0.00000020      -398.3267595070  1.47E-07
    69 Broy./Diag. 0.40E+00    6.2     0.00000014      -398.3267595699 -6.29E-08
    70 Broy./Diag. 0.40E+00    6.0     0.00000009      -398.3267593714  1.98E-07

  *** SCF run converged in    70 steps ***


  Electronic density on regular grids:       -132.0000000000        0.0000000000
  Core density on regular grids:              132.0000000000       -0.0000000000
  Total charge density on r-space grids:        0.0000000000
  Total charge density g-space grids:           0.0000000000

  Overlap energy of the core charge distribution:               0.00000532392887
  Self energy of the core charge distribution:               -694.24006382317145
  Core Hamiltonian energy:                                    222.42647216907071
  Hartree energy:                                             135.84078118619473
  Exchange-correlation energy:                                -62.34954039815653
  Electronic entropic energy:                                  -0.00441382863390
  Fermi energy:                                                -0.18411624086344

  Total energy:                                              -398.32675937137367

 !-----------------------------------------------------------------------------!
                     Mulliken Population Analysis

 #  Atom  Element  Kind  Atomic population                           Net charge
       1     Au       1         10.943885                              0.056115
       2     Au       1         10.943831                              0.056169
       3     Au       1         10.943856                              0.056144
       4     Au       1         11.037113                             -0.037113
       5     Au       1         11.094282                             -0.094282
       6     Au       1         11.037034                             -0.037034
       7     Au       1         11.037034                             -0.037034
       8     Au       1         11.094282                             -0.094282
       9     Au       1         11.037111                             -0.037111
      10     Au       1         10.943853                              0.056147
      11     Au       1         10.943887                              0.056113
      12     Au       1         10.943832                              0.056168
 # Total charge                            132.000000                 -0.000000

 !-----------------------------------------------------------------------------!

 !-----------------------------------------------------------------------------!
                           Hirshfeld Charges

  #Atom  Element  Kind  Ref Charge     Population                    Net charge
      1       Au     1      11.000         10.956                         0.044
      2       Au     1      11.000         10.956                         0.044
      3       Au     1      11.000         10.956                         0.044
      4       Au     1      11.000         10.995                         0.005
      5       Au     1      11.000         11.100                        -0.100
      6       Au     1      11.000         11.037                        -0.037
      7       Au     1      11.000         11.037                        -0.037
      8       Au     1      11.000         11.100                        -0.100
      9       Au     1      11.000         10.995                         0.005
     10       Au     1      11.000         10.956                         0.044
     11       Au     1      11.000         10.956                         0.044
     12       Au     1      11.000         10.956                         0.044

  Total Charge                                                            0.000
 !-----------------------------------------------------------------------------!

 ENERGY| Total FORCE_EVAL ( QS ) energy (a.u.):             -398.326759371373669


 -------------------------------------------------------------------------------
 -                                                                             -
 -                                DBCSR STATISTICS                             -
 -                                                                             -
 -------------------------------------------------------------------------------
 COUNTER                                    TOTAL       BLAS       SMM       ACC
 flops inhomo. stacks                           0       0.0%      0.0%      0.0%
 flops total                         0.000000E+00       0.0%      0.0%      0.0%
 flops max/rank                      0.000000E+00       0.0%      0.0%      0.0%
 matmuls inhomo. stacks                         0       0.0%      0.0%      0.0%
 matmuls total                                  0       0.0%      0.0%      0.0%
 number of processed stacks                     0       0.0%      0.0%      0.0%
 average stack size                                     0.0       0.0       0.0
 marketing flops                     0.000000E+00
 -------------------------------------------------------------------------------
 
 MEMORY| Estimated peak process memory [MiB]                                 829

 -------------------------------------------------------------------------------
 ----                             MULTIGRID INFO                            ----
 -------------------------------------------------------------------------------
 count for grid        1:         240075          cutoff [a.u.]          250.00
 count for grid        2:        1056517          cutoff [a.u.]           83.33
 count for grid        3:         488297          cutoff [a.u.]           27.78
 count for grid        4:         256204          cutoff [a.u.]            9.26
 total gridlevel count  :        2041093

 -------------------------------------------------------------------------------
 -                                                                             -
 -                         MESSAGE PASSING PERFORMANCE                         -
 -                                                                             -
 -------------------------------------------------------------------------------

 ROUTINE             CALLS      AVE VOLUME [Bytes]
 MP_Group             1186
 MP_Bcast            10196                  29986.
 MP_Allreduce         3970                    909.
 MP_Sync                 4
 MP_Alltoall         25385                1025290.
 MP_ISendRecv        56118                  86688.
 MP_Wait             73233
 MP_ISend            22415                 229203.
 MP_IRecv            28435                 180744.
 MP_Recv              1140                  68544.
 MP_Write_All            1                 614304.
 -------------------------------------------------------------------------------


 -------------------------------------------------------------------------------
 -                                                                             -
 -                           R E F E R E N C E S                               -
 -                                                                             -
 -------------------------------------------------------------------------------
 
 CP2K version 6.1, the CP2K developers group (2018).
 CP2K is freely available from https://www.cp2k.org/ .

 Schuett, Ole; Messmer, Peter; Hutter, Juerg; VandeVondele, Joost. 
 Electronic Structure Calculations on Graphics Processing Units, John Wiley & Sons, Ltd, 173-190 (2016). 
 GPU-Accelerated Sparse Matrix-Matrix Multiplication for Linear Scaling Density Functional Theory.
 http://dx.doi.org/10.1002/9781118670712.ch8


 Borstnik, U; VandeVondele, J; Weber, V; Hutter, J. 
 PARALLEL COMPUTING, 40 (5-6), 47-58 (2014). 
 Sparse matrix multiplication: The distributed block-compressed sparse
 row library.
 http://dx.doi.org/10.1016/j.parco.2014.03.012


 Hutter, J; Iannuzzi, M; Schiffmann, F; VandeVondele, J. 
 WILEY INTERDISCIPLINARY REVIEWS-COMPUTATIONAL MOLECULAR SCIENCE, 4 (1), 15-25 (2014). 
 CP2K: atomistic simulations of condensed matter systems.
 http://dx.doi.org/10.1002/wcms.1159


 VandeVondele, J; Hutter, J. 
 JOURNAL OF CHEMICAL PHYSICS, 127 (11), 114105 (2007). 
 Gaussian basis sets for accurate calculations on molecular systems in
 gas and condensed phases.
 http://dx.doi.org/10.1063/1.2770708


 Krack, M. 
 THEORETICAL CHEMISTRY ACCOUNTS, 114 (1-3), 145-152 (2005). 
 Pseudopotentials for H to Kr optimized for gradient-corrected
 exchange-correlation functionals.
 http://dx.doi.org/10.1007/s00214-005-0655-y


 VandeVondele, J; Krack, M; Mohamed, F; Parrinello, M; Chassaing, T;
 Hutter, J. COMPUTER PHYSICS COMMUNICATIONS, 167 (2), 103-128 (2005). 
 QUICKSTEP: Fast and accurate density functional calculations using a
 mixed Gaussian and plane waves approach.
 http://dx.doi.org/10.1016/j.cpc.2004.12.014


 Frigo, M; Johnson, SG. 
 PROCEEDINGS OF THE IEEE, 93 (2), 216-231 (2005). 
 The design and implementation of FFTW3.
 http://dx.doi.org/10.1109/JPROC.2004.840301


 Hartwigsen, C; Goedecker, S; Hutter, J. 
 PHYSICAL REVIEW B, 58 (7), 3641-3662 (1998). 
 Relativistic separable dual-space Gaussian pseudopotentials from H to Rn.
 http://dx.doi.org/10.1103/PhysRevB.58.3641


 Lippert, G; Hutter, J; Parrinello, M. 
 MOLECULAR PHYSICS, 92 (3), 477-487 (1997). 
 A hybrid Gaussian and plane wave density functional scheme.
 http://dx.doi.org/10.1080/002689797170220


 Perdew, JP; Burke, K; Ernzerhof, M. 
 PHYSICAL REVIEW LETTERS, 77 (18), 3865-3868 (1996). 
 Generalized gradient approximation made simple.
 http://dx.doi.org/10.1103/PhysRevLett.77.3865


 Goedecker, S; Teter, M; Hutter, J. 
 PHYSICAL REVIEW B, 54 (3), 1703-1710 (1996). 
 Separable dual-space Gaussian pseudopotentials.
 http://dx.doi.org/10.1103/PhysRevB.54.1703


 -------------------------------------------------------------------------------
 -                                                                             -
 -                                T I M I N G                                  -
 -                                                                             -
 -------------------------------------------------------------------------------
 SUBROUTINE                       CALLS  ASD         SELF TIME        TOTAL TIME
                                MAXIMUM       AVERAGE  MAXIMUM  AVERAGE  MAXIMUM
 CP2K                                 1  1.0    0.102    0.145  431.806  431.807
 qs_energies                          1  2.0    0.003    0.007  424.722  424.727
 scf_env_do_scf                       1  3.0    0.000    0.002  420.531  420.537
 scf_env_do_scf_inner_loop           70  4.0    0.009    0.017  420.531  420.537
 qs_ks_update_qs_env                 70  5.0    0.003    0.005  243.738  243.755
 rebuild_ks_matrix                   70  6.0    0.001    0.001  243.679  243.694
 qs_ks_build_kohn_sham_matrix        70  7.0    0.028    0.040  243.679  243.693
 pw_transfer                       1405  9.4    0.461    0.668  201.651  208.235
 fft_wrap_pw1pw2                   1265 10.5    0.039    0.054  198.756  205.599
 fft_wrap_pw1pw2_250                842 11.5   15.533   19.964  190.989  195.099
 fft3d_ps                          1265 12.5   70.690   91.611  151.845  170.881
 qs_vxc_create                       70  8.0    0.006    0.009  142.036  146.199
 xc_vxc_pw_create                    70  9.0    1.169    2.420  142.029  146.194
 mp_alltoall_z22v                  1265 14.5   56.763  110.056   56.763  110.056
 rs_pw_transfer                     567  9.5    0.014    0.022   95.397   96.056
 qs_rho_update_rho                   71  5.0    0.001    0.001   90.736   90.744
 calculate_rho_elec                  71  6.0    0.559   14.619   90.735   90.743
 density_rs2pw                       71  7.0    0.010    0.015   80.476   82.239
 sum_up_and_integrate                70  8.0    1.446    2.071   75.541   75.561
 integrate_v_rspace                  70  9.0    0.154    3.102   74.096   74.587
 gspace_mixing                       69  5.0    0.159    0.216   71.733   71.734
 xc_rho_set_and_dset_create          70 10.0    0.771    1.011   67.071   71.443
 potential_pw2rs                     70 10.0    0.038    0.060   70.824   71.408
 x_to_yz                            560 13.5   14.193   21.242   43.777   62.373
 yz_to_x                            423 13.5    8.953   13.292   35.704   58.208
 broyden_mixing                      69  6.0   51.318   57.161   55.996   57.259
 mp_waitall_1                     64398 11.3   19.464   32.651   19.464   32.651
 mp_waitany                        8835 11.5   18.707   31.150   18.707   31.150
 rs_pw_transfer_PW2RS_250            71 11.9   18.936   21.139   28.856   30.872
 rs_pw_transfer_RS2PW_250            73  9.0   19.709   23.515   28.772   29.814
 pw_scatter_p                       700 12.8   18.873   28.887   18.873   28.887
 pw_gather_p                        565 12.1   12.089   17.444   12.089   17.444
 rs_pw_transfer_PW2RS_30             70 12.0    4.224    6.861   14.063   15.467
 mp_sum_d                          3013  7.7    6.112   15.123    6.112   15.123
 qs_scf_new_mos_kp                   70  5.0    0.001    0.001   15.047   15.063
 do_general_diag_kp                  70  6.0    0.011    0.013   15.046   15.062
 pw_derive                          420 10.5   11.093   14.389   11.093   14.389
 rs_grid_zero                       427  9.0   11.295   12.223   11.295   12.223
 xc_functional_eval                  70 11.0    0.002    0.003    7.218   11.828
 pbe_lda_eval                        70 12.0    7.216   11.827    7.216   11.827
 mp_sum_dm                           69  7.0    3.404   11.703    3.404   11.703
 rs_pw_transfer_RS2PW_30             71  9.0    3.278    4.330    9.853   10.020
 cp_cfm_geeig                        70  7.0    0.001    0.002    9.698    9.936
 pw_copy                            771 10.5    7.736    9.859    7.736    9.859
 fft_wrap_pw1pw2_90                 141 11.5    0.306    0.618    5.771    9.068
 -------------------------------------------------------------------------------

 The number of warnings for this run is : 1
 
 -------------------------------------------------------------------------------
  **** **** ******  **  PROGRAM ENDED AT                 2022-08-13 06:55:57.753
 ***** ** ***  *** **   PROGRAM RAN ON                  cx3-8-4.cx3.hpc.ic.ac.uk
 **    ****   ******    PROGRAM RAN BY                                    jj1921
 ***** **    ** ** **   PROGRAM PROCESS ID                               2140637
  **** **  *******  **  PROGRAM STOPPED IN /rds/general/user/jj1921/home/junctio
                                           n/lateral/lateral_12/wire
