ATOMS
H             3.25353201      5.72009504     18.92650888            -0.01986521      0.70681055     -0.00492175
H             3.25941157      5.72539283     19.68363138             0.01986521     -0.70681055      0.00492175
