ATOMS
H             3.25353201      5.72009504     18.92650888             0.00805421      0.52582579      0.47269691
H             3.25941157      5.72539283     19.68363138             0.00805421      0.52582579      0.47269691
