ATOMS
H             3.25353201      5.72009504     18.92650888             0.00129635      0.47271580     -0.52586889
H             3.25941157      5.72539283     19.68363138             0.00129635      0.47271580     -0.52586889
