ATOMS
H             3.25353201      5.72009504     18.92650888            -0.01868734      0.70684283     -0.00489808
H             3.25943311      5.72541219     19.67697042             0.01868734     -0.70684283      0.00489808
