ATOMS
H             3.25353201      5.72009504     18.92650888             0.70710675      0.00021116      0.00006624
H             3.25943311      5.72541219     19.67697042             0.70710675      0.00021116      0.00006624
