     116
 i =        1, E =     -3518.0807748617
 Au         0.0000000000        0.0000000000        0.0000000000
 Au         0.0000000000        4.1460000000        0.0000000000
 Au         2.0730000000        2.0730000000        0.0000000000
 Au         2.0730000000        6.2190000000        0.0000000000
 Au         4.1460000000        0.0000000000        0.0000000000
 Au         4.1460000000        4.1460000000        0.0000000000
 Au         6.2190000000        2.0730000000        0.0000000000
 Au         6.2190000000        6.2190000000        0.0000000000
 Au         0.0000000000        2.0730000000        2.0730000000
 Au         0.0000000000        6.2190000000        2.0730000000
 Au         2.0730000000        0.0000000000        2.0730000000
 Au         2.0730000000        4.1460000000        2.0730000000
 Au         4.1460000000        2.0730000000        2.0730000000
 Au         4.1460000000        6.2190000000        2.0730000000
 Au         6.2190000000        0.0000000000        2.0730000000
 Au         6.2190000000        4.1460000000        2.0730000000
 Au         0.0000000000        0.0000000000        4.1460000000
 Au         0.0000000000        4.1460000000        4.1460000000
 Au         2.0730000000        2.0730000000        4.1460000000
 Au         2.0730000000        6.2190000000        4.1460000000
 Au         4.1460000000        0.0000000000        4.1460000000
 Au         4.1460000000        4.1460000000        4.1460000000
 Au         6.2190000000        2.0730000000        4.1460000000
 Au         6.2190000000        6.2190000000        4.1460000000
 Au         0.0000000000        2.0730000000        6.2190000000
 Au         0.0000000000        6.2190000000        6.2190000000
 Au         2.0730000000        0.0000000000        6.2190000000
 Au         2.0730000000        4.1460000000        6.2190000000
 Au         4.1460000000        2.0730000000        6.2190000000
 Au         4.1460000000        6.2190000000        6.2190000000
 Au         6.2190000000        0.0000000000        6.2190000000
 Au         6.2190000000        4.1460000000        6.2190000000
 Au         0.0000000000        0.0000000000        8.2920000000
 Au         0.0000000000        4.1460000000        8.2920000000
 Au         2.0730000000        2.0730000000        8.2920000000
 Au         2.0730000000        6.2190000000        8.2920000000
 Au         4.1460000000        0.0000000000        8.2920000000
 Au         4.1460000000        4.1460000000        8.2920000000
 Au         6.2190000000        2.0730000000        8.2920000000
 Au         6.2190000000        6.2190000000        8.2920000000
 Au        -0.0000106144        2.0729855367       10.3725568333
 Au        -0.0000145680        6.2189553042       10.3634111665
 Au         2.0687688310       -0.0035107510       10.3504001559
 Au         2.0687781730        4.1495889463       10.3503464823
 Au         4.1459909955        2.0729092427       10.2711268130
 Au         4.1459936422        6.2188463774       10.3706332965
 Au         6.2232251011       -0.0035153324       10.3503609911
 Au         6.2232163120        4.1495937553       10.3503064570
 Au         0.0000409882       -0.0151439996       12.4399905942
 Au         0.0000414098        4.1612305469       12.4401001606
 Au         1.9126653107        2.0730227541       12.4164559222
 Au         2.0566107894        6.2189381548       12.4389600283
 Au         4.1459802375       -0.1672054478       12.4042001980
 Au         4.1459809345        4.3135632601       12.4037020058
 Au         6.3793035626        2.0730253821       12.4163891316
 Au         6.2353930111        6.2189388487       12.4389679068
  S         4.1461711197        2.0752869573       13.8152903315
  C         4.1432282011        2.0902176120       15.5929796766
  H         1.9652790458        2.0979552901       15.6553106409
  H         6.3229747588        2.0977967813       15.6649689442
  C         2.8855302590        2.0747836771       16.2159017991
  C         5.3976430664        2.0749317053       16.2179803570
  C         2.8854800256        2.0693046450       17.6157978491
  C         5.3952570720        2.0693847709       17.6172736065
  H         1.9585519855        2.0462784540       18.1686966533
  H         6.3159893010        2.0460957392       18.1789316541
  C         4.1391565774        2.0546092861       18.2422266783
  S         4.1419768635        2.0704657263       20.0212366399
 Au         0.0007391622       -0.0127718693       21.3949878383
 Au         0.0007321056        4.1586818181       21.3951095107
 Au         1.9098818623        2.0730141075       21.4192163364
 Au         2.0584179078        6.2190322199       21.3961700316
 Au         4.1468351180       -0.1712503262       21.4319436996
 Au         4.1468410647        4.3169440215       21.4313772590
 Au         6.3813054228        2.0730160035       21.4181764894
 Au         6.2190000000        6.2190000000       21.3960000000
 Au         0.0000000000        2.0730000000       23.4690000000
 Au         0.0000000000        6.2190000000       23.4690000000
 Au         2.0730000000        0.0000000000       23.4690000000
 Au         2.0730000000        4.1460000000       23.4690000000
 Au         4.1460000000        2.0730000000       23.4690000000
 Au         4.1460000000        6.2190000000       23.4690000000
 Au         6.2190000000        0.0000000000       23.4690000000
 Au         6.2190000000        4.1460000000       23.4690000000
 Au         0.0000000000        0.0000000000       25.5420000000
 Au         0.0000000000        4.1460000000       25.5420000000
 Au         2.0730000000        2.0730000000       25.5420000000
 Au         2.0730000000        6.2190000000       25.5420000000
 Au         4.1460000000        0.0000000000       25.5420000000
 Au         4.1460000000        4.1460000000       25.5420000000
 Au         6.2190000000        2.0730000000       25.5420000000
 Au         6.2190000000        6.2190000000       25.5420000000
 Au         0.0000000000        2.0730000000       27.6150000000
 Au         0.0000000000        6.2190000000       27.6150000000
 Au         2.0730000000        0.0000000000       27.6150000000
 Au         2.0730000000        4.1460000000       27.6150000000
 Au         4.1460000000        2.0730000000       27.6150000000
 Au         4.1460000000        6.2190000000       27.6150000000
 Au         6.2190000000        0.0000000000       27.6150000000
 Au         6.2190000000        4.1460000000       27.6150000000
 Au         0.0000000000        0.0000000000       29.6880000000
 Au         0.0000000000        4.1460000000       29.6880000000
 Au         2.0730000000        2.0730000000       29.6880000000
 Au         2.0730000000        6.2190000000       29.6880000000
 Au         4.1460000000        0.0000000000       29.6880000000
 Au         4.1460000000        4.1460000000       29.6880000000
 Au         6.2190000000        2.0730000000       29.6880000000
 Au         6.2190000000        6.2190000000       29.6880000000
 Au         0.0000000000        2.0730000000       31.7610000000
 Au         0.0000000000        6.2190000000       31.7610000000
 Au         2.0730000000        0.0000000000       31.7610000000
 Au         2.0730000000        4.1460000000       31.7610000000
 Au         4.1460000000        2.0730000000       31.7610000000
 Au         4.1460000000        6.2190000000       31.7610000000
 Au         6.2190000000        0.0000000000       31.7610000000
 Au         6.2190000000        4.1460000000       31.7610000000
     116
 i =        2, E =     -3518.0895332799
 Au         0.0000000000        0.0000000000        0.0000000000
 Au         0.0000000000        4.1460000000        0.0000000000
 Au         2.0730000000        2.0730000000        0.0000000000
 Au         2.0730000000        6.2190000000        0.0000000000
 Au         4.1460000000        0.0000000000        0.0000000000
 Au         4.1460000000        4.1460000000        0.0000000000
 Au         6.2190000000        2.0730000000        0.0000000000
 Au         6.2190000000        6.2190000000        0.0000000000
 Au         0.0000000000        2.0730000000        2.0730000000
 Au         0.0000000000        6.2190000000        2.0730000000
 Au         2.0730000000        0.0000000000        2.0730000000
 Au         2.0730000000        4.1460000000        2.0730000000
 Au         4.1460000000        2.0730000000        2.0730000000
 Au         4.1460000000        6.2190000000        2.0730000000
 Au         6.2190000000        0.0000000000        2.0730000000
 Au         6.2190000000        4.1460000000        2.0730000000
 Au         0.0000000000        0.0000000000        4.1460000000
 Au         0.0000000000        4.1460000000        4.1460000000
 Au         2.0730000000        2.0730000000        4.1460000000
 Au         2.0730000000        6.2190000000        4.1460000000
 Au         4.1460000000        0.0000000000        4.1460000000
 Au         4.1460000000        4.1460000000        4.1460000000
 Au         6.2190000000        2.0730000000        4.1460000000
 Au         6.2190000000        6.2190000000        4.1460000000
 Au         0.0000000000        2.0730000000        6.2190000000
 Au         0.0000000000        6.2190000000        6.2190000000
 Au         2.0730000000        0.0000000000        6.2190000000
 Au         2.0730000000        4.1460000000        6.2190000000
 Au         4.1460000000        2.0730000000        6.2190000000
 Au         4.1460000000        6.2190000000        6.2190000000
 Au         6.2190000000        0.0000000000        6.2190000000
 Au         6.2190000000        4.1460000000        6.2190000000
 Au         0.0000000000        0.0000000000        8.2920000000
 Au         0.0000000000        4.1460000000        8.2920000000
 Au         2.0730000000        2.0730000000        8.2920000000
 Au         2.0730000000        6.2190000000        8.2920000000
 Au         4.1460000000        0.0000000000        8.2920000000
 Au         4.1460000000        4.1460000000        8.2920000000
 Au         6.2190000000        2.0730000000        8.2920000000
 Au         6.2190000000        6.2190000000        8.2920000000
 Au        -0.0000016816        2.0730007487       10.3340626901
 Au        -0.0000316014        6.2189307108       10.3619559282
 Au         2.0740757338        0.0037470466       10.3537622163
 Au         2.0740218596        4.1422770086       10.3535816318
 Au         4.1460120578        2.0727835500       10.2966091465
 Au         4.1459956119        6.2187545099       10.3237748469
 Au         6.2179413489        0.0037380858       10.3537635851
 Au         6.2179972452        4.1422872183       10.3535809062
 Au         0.0000546291       -0.0512595715       12.4490732621
 Au         0.0000564756        4.1974016164       12.4492731434
 Au         1.9049960848        2.0728656611       12.4267440923
 Au         2.0170100291        6.2191015580       12.4480078225
 Au         4.1459565999       -0.1764287798       12.4082492633
 Au         4.1459565924        4.3238983782       12.4068339640
 Au         6.3868804677        2.0728677442       12.4268802487
 Au         6.2749802690        6.2191030043       12.4479558672
  S         4.1459079033        2.0794187092       13.7666098968
  C         4.1438283996        2.0754452442       15.5459010023
  H         1.9850437913        2.0909353439       15.6555019289
  H         6.3024033288        2.0908665933       15.6630208167
  C         2.9152573812        2.0932819215       16.2183489718
  C         5.3699016154        2.0931087681       16.2223635414
  C         2.9111973585        2.0515537283       17.6118161916
  C         5.3680860808        2.0514595018       17.6154828954
  H         1.9781885962        2.0531932839       18.1716800199
  H         6.2983058009        2.0530694178       18.1792322336
  C         4.1385949136        2.0691717236       18.2855600886
  S         4.1408277519        2.0663027934       20.0640049702
 Au        -0.0011393152       -0.0517084085       21.3839060935
 Au        -0.0011427494        4.1975229848       21.3841268662
 Au         1.8998339174        2.0732204567       21.4002321180
 Au         2.0167001056        6.2188619297       21.3843127875
 Au         4.1444051661       -0.1805127016       21.4184705206
 Au         4.1444071451        4.3250052811       21.4169366909
 Au         6.3913093714        2.0732185837       21.3990982749
 Au         6.2190000000        6.2190000000       21.3960000000
 Au         0.0000000000        2.0730000000       23.4690000000
 Au         0.0000000000        6.2190000000       23.4690000000
 Au         2.0730000000        0.0000000000       23.4690000000
 Au         2.0730000000        4.1460000000       23.4690000000
 Au         4.1460000000        2.0730000000       23.4690000000
 Au         4.1460000000        6.2190000000       23.4690000000
 Au         6.2190000000        0.0000000000       23.4690000000
 Au         6.2190000000        4.1460000000       23.4690000000
 Au         0.0000000000        0.0000000000       25.5420000000
 Au         0.0000000000        4.1460000000       25.5420000000
 Au         2.0730000000        2.0730000000       25.5420000000
 Au         2.0730000000        6.2190000000       25.5420000000
 Au         4.1460000000        0.0000000000       25.5420000000
 Au         4.1460000000        4.1460000000       25.5420000000
 Au         6.2190000000        2.0730000000       25.5420000000
 Au         6.2190000000        6.2190000000       25.5420000000
 Au         0.0000000000        2.0730000000       27.6150000000
 Au         0.0000000000        6.2190000000       27.6150000000
 Au         2.0730000000        0.0000000000       27.6150000000
 Au         2.0730000000        4.1460000000       27.6150000000
 Au         4.1460000000        2.0730000000       27.6150000000
 Au         4.1460000000        6.2190000000       27.6150000000
 Au         6.2190000000        0.0000000000       27.6150000000
 Au         6.2190000000        4.1460000000       27.6150000000
 Au         0.0000000000        0.0000000000       29.6880000000
 Au         0.0000000000        4.1460000000       29.6880000000
 Au         2.0730000000        2.0730000000       29.6880000000
 Au         2.0730000000        6.2190000000       29.6880000000
 Au         4.1460000000        0.0000000000       29.6880000000
 Au         4.1460000000        4.1460000000       29.6880000000
 Au         6.2190000000        2.0730000000       29.6880000000
 Au         6.2190000000        6.2190000000       29.6880000000
 Au         0.0000000000        2.0730000000       31.7610000000
 Au         0.0000000000        6.2190000000       31.7610000000
 Au         2.0730000000        0.0000000000       31.7610000000
 Au         2.0730000000        4.1460000000       31.7610000000
 Au         4.1460000000        2.0730000000       31.7610000000
 Au         4.1460000000        6.2190000000       31.7610000000
 Au         6.2190000000        0.0000000000       31.7610000000
 Au         6.2190000000        4.1460000000       31.7610000000
     116
 i =        3, E =     -3518.0887715229
 Au         0.0000000000        0.0000000000        0.0000000000
 Au         0.0000000000        4.1460000000        0.0000000000
 Au         2.0730000000        2.0730000000        0.0000000000
 Au         2.0730000000        6.2190000000        0.0000000000
 Au         4.1460000000        0.0000000000        0.0000000000
 Au         4.1460000000        4.1460000000        0.0000000000
 Au         6.2190000000        2.0730000000        0.0000000000
 Au         6.2190000000        6.2190000000        0.0000000000
 Au         0.0000000000        2.0730000000        2.0730000000
 Au         0.0000000000        6.2190000000        2.0730000000
 Au         2.0730000000        0.0000000000        2.0730000000
 Au         2.0730000000        4.1460000000        2.0730000000
 Au         4.1460000000        2.0730000000        2.0730000000
 Au         4.1460000000        6.2190000000        2.0730000000
 Au         6.2190000000        0.0000000000        2.0730000000
 Au         6.2190000000        4.1460000000        2.0730000000
 Au         0.0000000000        0.0000000000        4.1460000000
 Au         0.0000000000        4.1460000000        4.1460000000
 Au         2.0730000000        2.0730000000        4.1460000000
 Au         2.0730000000        6.2190000000        4.1460000000
 Au         4.1460000000        0.0000000000        4.1460000000
 Au         4.1460000000        4.1460000000        4.1460000000
 Au         6.2190000000        2.0730000000        4.1460000000
 Au         6.2190000000        6.2190000000        4.1460000000
 Au         0.0000000000        2.0730000000        6.2190000000
 Au         0.0000000000        6.2190000000        6.2190000000
 Au         2.0730000000        0.0000000000        6.2190000000
 Au         2.0730000000        4.1460000000        6.2190000000
 Au         4.1460000000        2.0730000000        6.2190000000
 Au         4.1460000000        6.2190000000        6.2190000000
 Au         6.2190000000        0.0000000000        6.2190000000
 Au         6.2190000000        4.1460000000        6.2190000000
 Au         0.0000000000        0.0000000000        8.2920000000
 Au         0.0000000000        4.1460000000        8.2920000000
 Au         2.0730000000        2.0730000000        8.2920000000
 Au         2.0730000000        6.2190000000        8.2920000000
 Au         4.1460000000        0.0000000000        8.2920000000
 Au         4.1460000000        4.1460000000        8.2920000000
 Au         6.2190000000        2.0730000000        8.2920000000
 Au         6.2190000000        6.2190000000        8.2920000000
 Au        -0.0000814331        2.0730429200       10.3225903954
 Au        -0.0000432469        6.2189169593       10.3411123196
 Au         2.0791080159        0.0106983784       10.3642447709
 Au         2.0787958145        4.1349921688       10.3639672800
 Au         4.1460162634        2.0728267268       10.3234631765
 Au         4.1459800399        6.2193509570       10.3056883588
 Au         6.2130022396        0.0107100004       10.3643031667
 Au         6.2133166630        4.1349832397       10.3640254086
 Au         0.0000607663       -0.0648992260       12.4574787770
 Au         0.0000609666        4.2110275663       12.4576116829
 Au         1.8930059564        2.0724227536       12.4354020696
 Au         1.9998427780        6.2195681701       12.4552950839
 Au         4.1459306873       -0.1906238586       12.4083112180
 Au         4.1459309844        4.3391853165       12.4071125905
 Au         6.3989411467        2.0724260508       12.4356428688
 Au         6.2921175493        6.2195679186       12.4552260457
  S         4.1458594728        2.0801248116       13.7399767969
  C         4.1435493294        2.1083197125       15.5255001144
  H         1.9900347578        2.0923664068       15.6586079434
  H         6.2968695610        2.0922612687       15.6655235397
  C         2.9234919046        2.0556618218       16.2167144915
  C         5.3618619270        2.0555792442       16.2208337010
  C         2.9195989660        2.0889284435       17.6108618666
  C         5.3600621778        2.0887098487       17.6148300315
  H         1.9856368763        2.0519743006       18.1687118604
  H         6.2924352039        2.0518749638       18.1753254378
  C         4.1389900287        2.0372550178       18.3023708759
  S         4.1399756114        2.0654654630       20.0835461854
 Au        -0.0079534576       -0.0780751409       21.3707541355
 Au        -0.0079861113        4.2238853847       21.3708964105
 Au         1.8899286682        2.0737035807       21.3812313922
 Au         1.9905307909        6.2183570182       21.3685938365
 Au         4.1342993147       -0.1806260384       21.4017444785
 Au         4.1344037214        4.3240367330       21.4004432175
 Au         6.4001230873        2.0737054401       21.3796185162
 Au         6.2190000000        6.2190000000       21.3960000000
 Au         0.0000000000        2.0730000000       23.4690000000
 Au         0.0000000000        6.2190000000       23.4690000000
 Au         2.0730000000        0.0000000000       23.4690000000
 Au         2.0730000000        4.1460000000       23.4690000000
 Au         4.1460000000        2.0730000000       23.4690000000
 Au         4.1460000000        6.2190000000       23.4690000000
 Au         6.2190000000        0.0000000000       23.4690000000
 Au         6.2190000000        4.1460000000       23.4690000000
 Au         0.0000000000        0.0000000000       25.5420000000
 Au         0.0000000000        4.1460000000       25.5420000000
 Au         2.0730000000        2.0730000000       25.5420000000
 Au         2.0730000000        6.2190000000       25.5420000000
 Au         4.1460000000        0.0000000000       25.5420000000
 Au         4.1460000000        4.1460000000       25.5420000000
 Au         6.2190000000        2.0730000000       25.5420000000
 Au         6.2190000000        6.2190000000       25.5420000000
 Au         0.0000000000        2.0730000000       27.6150000000
 Au         0.0000000000        6.2190000000       27.6150000000
 Au         2.0730000000        0.0000000000       27.6150000000
 Au         2.0730000000        4.1460000000       27.6150000000
 Au         4.1460000000        2.0730000000       27.6150000000
 Au         4.1460000000        6.2190000000       27.6150000000
 Au         6.2190000000        0.0000000000       27.6150000000
 Au         6.2190000000        4.1460000000       27.6150000000
 Au         0.0000000000        0.0000000000       29.6880000000
 Au         0.0000000000        4.1460000000       29.6880000000
 Au         2.0730000000        2.0730000000       29.6880000000
 Au         2.0730000000        6.2190000000       29.6880000000
 Au         4.1460000000        0.0000000000       29.6880000000
 Au         4.1460000000        4.1460000000       29.6880000000
 Au         6.2190000000        2.0730000000       29.6880000000
 Au         6.2190000000        6.2190000000       29.6880000000
 Au         0.0000000000        2.0730000000       31.7610000000
 Au         0.0000000000        6.2190000000       31.7610000000
 Au         2.0730000000        0.0000000000       31.7610000000
 Au         2.0730000000        4.1460000000       31.7610000000
 Au         4.1460000000        2.0730000000       31.7610000000
 Au         4.1460000000        6.2190000000       31.7610000000
 Au         6.2190000000        0.0000000000       31.7610000000
 Au         6.2190000000        4.1460000000       31.7610000000
     116
 i =        4, E =     -3518.0916487408
 Au         0.0000000000        0.0000000000        0.0000000000
 Au         0.0000000000        4.1460000000        0.0000000000
 Au         2.0730000000        2.0730000000        0.0000000000
 Au         2.0730000000        6.2190000000        0.0000000000
 Au         4.1460000000        0.0000000000        0.0000000000
 Au         4.1460000000        4.1460000000        0.0000000000
 Au         6.2190000000        2.0730000000        0.0000000000
 Au         6.2190000000        6.2190000000        0.0000000000
 Au         0.0000000000        2.0730000000        2.0730000000
 Au         0.0000000000        6.2190000000        2.0730000000
 Au         2.0730000000        0.0000000000        2.0730000000
 Au         2.0730000000        4.1460000000        2.0730000000
 Au         4.1460000000        2.0730000000        2.0730000000
 Au         4.1460000000        6.2190000000        2.0730000000
 Au         6.2190000000        0.0000000000        2.0730000000
 Au         6.2190000000        4.1460000000        2.0730000000
 Au         0.0000000000        0.0000000000        4.1460000000
 Au         0.0000000000        4.1460000000        4.1460000000
 Au         2.0730000000        2.0730000000        4.1460000000
 Au         2.0730000000        6.2190000000        4.1460000000
 Au         4.1460000000        0.0000000000        4.1460000000
 Au         4.1460000000        4.1460000000        4.1460000000
 Au         6.2190000000        2.0730000000        4.1460000000
 Au         6.2190000000        6.2190000000        4.1460000000
 Au         0.0000000000        2.0730000000        6.2190000000
 Au         0.0000000000        6.2190000000        6.2190000000
 Au         2.0730000000        0.0000000000        6.2190000000
 Au         2.0730000000        4.1460000000        6.2190000000
 Au         4.1460000000        2.0730000000        6.2190000000
 Au         4.1460000000        6.2190000000        6.2190000000
 Au         6.2190000000        0.0000000000        6.2190000000
 Au         6.2190000000        4.1460000000        6.2190000000
 Au         0.0000000000        0.0000000000        8.2920000000
 Au         0.0000000000        4.1460000000        8.2920000000
 Au         2.0730000000        2.0730000000        8.2920000000
 Au         2.0730000000        6.2190000000        8.2920000000
 Au         4.1460000000        0.0000000000        8.2920000000
 Au         4.1460000000        4.1460000000        8.2920000000
 Au         6.2190000000        2.0730000000        8.2920000000
 Au         6.2190000000        6.2190000000        8.2920000000
 Au        -0.0000954569        2.0729590853       10.3300221412
 Au        -0.0000250131        6.2188637730       10.3317470002
 Au         2.0794150192        0.0118861832       10.3689885656
 Au         2.0791905137        4.1338474337       10.3687683019
 Au         4.1460109788        2.0727737091       10.3263616907
 Au         4.1459744656        6.2192138509       10.3118714232
 Au         6.2127099651        0.0118993331       10.3690705305
 Au         6.2129390891        4.1338363428       10.3688498398
 Au         0.0000581993       -0.0599569654       12.4590308495
 Au         0.0000580150        4.2061342351       12.4591433913
 Au         1.8863012525        2.0721191188       12.4386303333
 Au         2.0035887912        6.2197379925       12.4559619859
 Au         4.1459452286       -0.1974086358       12.4090008327
 Au         4.1459433350        4.3473624473       12.4070490452
 Au         6.4056929461        2.0721252141       12.4389150466
 Au         6.2883387990        6.2197390943       12.4559559891
  S         4.1458424443        2.0830266171       13.7461863555
  C         4.1432368980        2.0847739967       15.5351258431
  H         1.9832749324        2.0878549996       15.6594086014
  H         6.3035633716        2.0877308709       15.6666330633
  C         2.9160685595        2.0786936304       16.2152347875
  C         5.3687309373        2.0786779109       16.2188253948
  C         2.9139737405        2.0659722671       17.6103432060
  C         5.3664673811        2.0658841720       17.6137857768
  H         1.9807148739        2.0565567254       18.1659856872
  H         6.2976276241        2.0564209501       18.1729613711
  C         4.1394155022        2.0603520416       18.2917908131
  S         4.1401257383        2.0627244808       20.0758989608
 Au        -0.0121927152       -0.0758481674       21.3663951216
 Au        -0.0123159970        4.2216984307       21.3665001245
 Au         1.8829236019        2.0740255095       21.3776251714
 Au         1.9943509506        6.2181260581       21.3629503850
 Au         4.1281668885       -0.1816051091       21.3987700261
 Au         4.1284007993        4.3237114163       21.3968642214
 Au         6.4052829444        2.0740312105       21.3759399439
 Au         6.2190000000        6.2190000000       21.3960000000
 Au         0.0000000000        2.0730000000       23.4690000000
 Au         0.0000000000        6.2190000000       23.4690000000
 Au         2.0730000000        0.0000000000       23.4690000000
 Au         2.0730000000        4.1460000000       23.4690000000
 Au         4.1460000000        2.0730000000       23.4690000000
 Au         4.1460000000        6.2190000000       23.4690000000
 Au         6.2190000000        0.0000000000       23.4690000000
 Au         6.2190000000        4.1460000000       23.4690000000
 Au         0.0000000000        0.0000000000       25.5420000000
 Au         0.0000000000        4.1460000000       25.5420000000
 Au         2.0730000000        2.0730000000       25.5420000000
 Au         2.0730000000        6.2190000000       25.5420000000
 Au         4.1460000000        0.0000000000       25.5420000000
 Au         4.1460000000        4.1460000000       25.5420000000
 Au         6.2190000000        2.0730000000       25.5420000000
 Au         6.2190000000        6.2190000000       25.5420000000
 Au         0.0000000000        2.0730000000       27.6150000000
 Au         0.0000000000        6.2190000000       27.6150000000
 Au         2.0730000000        0.0000000000       27.6150000000
 Au         2.0730000000        4.1460000000       27.6150000000
 Au         4.1460000000        2.0730000000       27.6150000000
 Au         4.1460000000        6.2190000000       27.6150000000
 Au         6.2190000000        0.0000000000       27.6150000000
 Au         6.2190000000        4.1460000000       27.6150000000
 Au         0.0000000000        0.0000000000       29.6880000000
 Au         0.0000000000        4.1460000000       29.6880000000
 Au         2.0730000000        2.0730000000       29.6880000000
 Au         2.0730000000        6.2190000000       29.6880000000
 Au         4.1460000000        0.0000000000       29.6880000000
 Au         4.1460000000        4.1460000000       29.6880000000
 Au         6.2190000000        2.0730000000       29.6880000000
 Au         6.2190000000        6.2190000000       29.6880000000
 Au         0.0000000000        2.0730000000       31.7610000000
 Au         0.0000000000        6.2190000000       31.7610000000