Siesta Version  : trunk-761--smeagol-80
Architecture    : thomas-intel2017update1-intelmpi-mkl
Compiler version: ifort (IFORT) 18.0.3 20180410
Compiler flags  : mpif90 -O2  -fPIC -g -ftree-vectorize -xHost
PP flags        : -DFC_HAVE_ABORT -DMPI
Libraries       :   -lmkl_scalapack_lp64 -lmkl_blacs_intelmpi_lp64 -lmkl_intel_lp64 -lmkl_sequeential -lmkl_core
Directory       : /lustre/scratch/mmm1169/work/cp2k-smeagol-examples/li-chain/siesta4-smeagol/iv/kpoints-1-1-20
PARALLEL version

* Running on 2 nodes in parallel
>> Start of run:   1-NOV-2023  16:27:01

                           ***********************       
                           *  WELCOME TO SIESTA  *       
                           ***********************       

reinit: Reading from standard input
reinit: Dumped input in INPUT_TMP.18536
************************** Dump of input data file ****************************
SystemName                   IV
SystemLabel                     IV               # Short name for naming files
NumberOfAtoms    12
NumberOfSpecies                 1               # Number of species
PAO.BasisType                   split
%block ChemicalSpeciesLabel
  1   3  Li
%endblock ChemicalSpeciesLabel
%block PAO.Basis
Li   1
n=2 0 1
0.0
1.0
%endblock PAO.Basis
%block PS.lmax
 Li   1
%endblock PS.lmax
LatticeConstant 1.000 Ang
%block LatticeVectors
  12.0    0.000   0.000   1
  0.000  12.0   0.000   1
  0.000   0.000     36.0 1
%endblock LatticeVectors
AtomicCoordinatesFormat Ang
%block AtomicCoordinatesAndAtomicSpecies
0.0 0.0 0.0 1 Li
0.0 0.0 3.0 1 Li
0.0 0.0 6.0 1 Li
0.0 0.0 9.0 1 Li
0.0 0.0 12.0 1 Li
0.0 0.0 15.0 1 Li
0.0 0.0 18.0 1 Li
0.0 0.0 21.0 1 Li
0.0 0.0 24.0 1 Li
0.0 0.0 27.0 1 Li
0.0 0.0 30.0 1 Li
0.0 0.0 33.0 1 Li
%endblock AtomicCoordinatesAndAtomicSpecies
%block kgrid_Monkhorst_Pack
  1   0   0     0.0
  0   1   0     0.0
  0   0   1     0.0
%endblock kgrid_Monkhorst_Pack
xc.functional		LDA		# 'LDA', 'GGA'
xc.authors 	 		CA		# 'CA'='PZ', 'PW92', 'PBE'
SpinPolarized			F		# 'T', 'F'		
#FixSpin           F
#TotalSpin        0.0
NonCollinearSpin		F		# 'T', 'F'
MeshCutoff 	 		    200 Ry		# Equivalent plane wave cutoff for the grid
MaxSCFIterations                10000                2                10000                10000		10000
DM.MixingWeight			0.1
DM.NumberPulay			4	# Pulay convergency accelerator
DM.MixSCF1			    T
MixHamiltonian      T
DM.PulayOnFile			F		# Store in memory ('F') or in files ('T')
#DM.NumberKick         30
#DM.KickMixingWeight   0.1
DM.Tolerance 		1.0E-4
NeglNonOverlapInt		F		# 'F'=do not neglect
SolutionMethod			diagon
ElectronicTemperature		300 K		# Default value
DM.UseSaveDM 			T
#MD.UseSaveXV			T
#MD.UseSaveCG			T
WriteForces      T
WriteCoorXmol			T		# Write Atoms coordinates
SaveElectrostaticPotential      T
#SaveHS				T		# Save the Hamiltonian and Overlap matrices
SaveRho				T		# Save the valence pseudocharge density
#SaveDeltaRho			T
#WriteDenchar			T		# Write Denchar output
WriteMullikenPop		0 #write mulliken population of aromic and orbital charges
#-----
#smeagol
#-----
# Perform a transport calculation
EMTransport              T
# Set number of energy points for integrals
NEnergReal               64
# Set bias range
VInitial             -2.0  eV
VFinal               2.0    eV
NIVPoints            9
# General variables
Delta                    1e-4
EnergLowestBound    -100.0 eV
# Print transmission coefficient
TrCoefficients           T
InitTransmRange      -10.0 eV
FinalTransmRange      10.0 eV
NTransmPoints            800
TRC.EMDOS                T
TRC.LeadsDOS             T
# Matching of Hartree potential with the leads
HartreeLeadsBottom   eV
%block SaveBiasSteps
 1 2 3 4 5 6 7 8 9
%endblock SaveBiasSteps
************************** End of input data file *****************************

reinit: -----------------------------------------------------------------------
reinit: System Name: IV
reinit: -----------------------------------------------------------------------
reinit: System Label: IV
reinit: -----------------------------------------------------------------------

initatom: Reading input for the pseudopotentials and atomic orbitals ----------
Species number:   1 Atomic number:    3 Label: Li
 
Ground state valence configuration:   2s01
Reading pseudopotential information in formatted form from Li.psf

Valence configuration for pseudopotential generation:
2s( 1.00) rc: 2.26
2p( 0.00) rc: 2.26
3d( 0.00) rc: 2.59
4f( 0.00) rc: 2.59
relmxkb: Read Max KB Ang. Momentum=    1 for species Li

<basis_specs>
===============================================================================
Li                   Z=   3    Mass=  6.9400        Charge= 0.17977+309
Lmxo=0 Lmxkb= 1    BasisType=split      Semic=F
L=0  Nsemic=0  Cnfigmx=2
          i=1  nzeta=1  polorb=0  (2s)
            splnorm:   0.15000    
               vcte:    0.0000    
               rinn:    0.0000    
               qcoe:    0.0000    
               qyuk:    0.0000    
               qwid:   0.10000E-01
                rcs:    0.0000    
            lambdas:    1.0000    
-------------------------------------------------------------------------------
L=0  Nkbl=1  erefs: 0.17977+309
L=1  Nkbl=1  erefs: 0.17977+309
===============================================================================
</basis_specs>

atom: Called for Li                    (Z =   3)

read_vps: Pseudopotential generation method:
read_vps: ATM3      Troullier-Martins                       
Total valence charge:    1.00000

read_vps: Pseudopotential includes a core correction:
read_vps: Pseudo-core for xc-correction

xc_check: Exchange-correlation functional:
xc_check: Ceperley-Alder
xc_check: WARNING: Pseudopotential generated with GGA PBE functional
V l=0 = -2*Zval/r beyond r=  2.4014
V l=1 = -2*Zval/r beyond r=  2.4014
All V_l potentials equal beyond r=  2.2001
This should be close to max(r_c) in ps generation
All pots = -2*Zval/r beyond r=  2.4014

VLOCAL1: 99.0% of the norm of Vloc inside      8.968 Ry
VLOCAL1: 99.9% of the norm of Vloc inside     20.437 Ry
atom: Maximum radius for 4*pi*r*r*local-pseudopot. charge    2.55631
atom: Maximum radius for r*vlocal+2*Zval:    2.17278

KBgen: Kleinman-Bylander projectors: 
GHOST: No ghost state for L =  0
   l= 0   rc=  2.721230   el= -0.211995   Ekb=  1.936384   kbcos=  0.226371
GHOST: No ghost state for L =  1
   l= 1   rc=  2.860793   el= -0.081473   Ekb= -0.871273   kbcos= -0.142848

KBgen: Total number of  Kleinman-Bylander projectors:    4
atom: -------------------------------------------------------------------------

atom: SANKEY-TYPE ORBITALS:

SPLIT: Orbitals with angular momentum L= 0

SPLIT: Basis orbitals for state 2s

SPLIT: PAO cut-off radius determined from an
SPLIT: energy shift=  0.020000 Ry

   izeta = 1
                 lambda =    1.000000
                     rc =    7.777862
                 energy =   -0.192109
                kinetic =    0.194479
    potential(screened) =   -0.386588
       potential(ionic) =   -0.562300
atom: Total number of Sankey-type orbitals:  1

atm_pop: Valence configuration (for local Pseudopot. screening):
 2s( 1.00)                                                            
Vna: chval, zval:    1.00000   1.00000

Vna:  Cut-off radius for the neutral-atom potential:   7.777862
comcore: Pseudo-core radius Rcore=  3.450946

atom: _________________________________________________________________________

prinput: Basis input ----------------------------------------------------------

PAO.BasisType split     

%block ChemicalSpeciesLabel
    1    3 Li                      # Species index, atomic number, species label
%endblock ChemicalSpeciesLabel

%block PAO.Basis                 # Define Basis set
Li                    1                    # Species label, number of l-shells
 n=2   0   1                         # n, l, Nzeta 
   7.778   
   1.000   
%endblock PAO.Basis

prinput: ----------------------------------------------------------------------

coor:   Atomic-coordinates input format  =     Cartesian coordinates
coor:                                          (in Angstroms)

siesta: Atomic coordinates (Bohr) and species
siesta:      0.00000   0.00000   0.00000  1        1
siesta:      0.00000   0.00000   5.66918  1        2
siesta:      0.00000   0.00000  11.33836  1        3
siesta:      0.00000   0.00000  17.00754  1        4
siesta:      0.00000   0.00000  22.67672  1        5
siesta:      0.00000   0.00000  28.34590  1        6
siesta:      0.00000   0.00000  34.01508  1        7
siesta:      0.00000   0.00000  39.68426  1        8
siesta:      0.00000   0.00000  45.35345  1        9
siesta:      0.00000   0.00000  51.02263  1       10
siesta:      0.00000   0.00000  56.69181  1       11
siesta:      0.00000   0.00000  62.36099  1       12

siesta: System type = chain     
