#     Step Nr.          Time[fs]        Kin.[a.u.]          Temp[K]            Pot.[a.u.]        Cons Qty[a.u.]        UsedTime[s]
      1501          750.500000         0.758811370       313.835485313     -9597.620117121     -9596.861305752       436.460143562
      1502          751.000000         0.767108476       317.267071168     -9597.628739145     -9596.861630669       195.279334389
      1503          751.500000         0.771679828       319.157729010     -9597.633431843     -9596.861752015       206.819777519
      1504          752.000000         0.770553125       318.691737627     -9597.632161542     -9596.861608417       203.705768183
      1505          752.500000         0.765313632       316.524744729     -9597.626689259     -9596.861375627       191.832990855
      1506          753.000000         0.759184659       313.989873274     -9597.620406818     -9596.861222159       188.528944686
      1507          753.500000         0.754291562       311.966146020     -9597.615525607     -9596.861234045       176.404982690
      1508          754.000000         0.750603958       310.440996232     -9597.611934914     -9596.861330956       182.232580557
      1509          754.500000         0.747218604       309.040853332     -9597.608545605     -9596.861327001       187.907083344
      1510          755.000000         0.744284440       307.827317651     -9597.605493818     -9596.861209378       188.885299671
      1511          755.500000         0.743329853       307.432511528     -9597.604426409     -9596.861096557       187.662069447
      1512          756.000000         0.745713659       308.418425725     -9597.606833423     -9596.861119765       195.317593209
      1513          756.500000         0.751028700       310.616664346     -9597.612295392     -9596.861266692       193.299688466
      1514          757.000000         0.757040507       313.103077330     -9597.618492808     -9596.861452301       177.897558227
      1515          757.500000         0.760986916       314.735265708     -9597.622550959     -9596.861564043       181.167810373
      1516          758.000000         0.761104922       314.784071770     -9597.622659106     -9596.861554184       187.999568608
      1517          758.500000         0.757470915       313.281089158     -9597.618906992     -9596.861436077       182.960132517
      1518          759.000000         0.751770042       310.923274990     -9597.613058749     -9596.861288706       191.871432856
      1519          759.500000         0.746167894       308.606292096     -9597.607373746     -9596.861205852       182.707916502
      1520          760.000000         0.742113752       306.929546470     -9597.603315814     -9596.861202062       189.707324486
      1521          760.500000         0.739962236       306.039704822     -9597.601179335     -9596.861217098       196.384130809
      1522          761.000000         0.739424051       305.817117494     -9597.600661031     -9596.861236980       182.273338433
      1523          761.500000         0.740144718       306.115177024     -9597.601384917     -9596.861240199       184.646708593
      1524          762.000000         0.741925598       306.851728243     -9597.603172575     -9596.861246977       184.265618864
      1525          762.500000         0.744629148       307.969884727     -9597.605894968     -9596.861265820       187.600906480
      1526          763.000000         0.747953236       309.344688532     -9597.609258894     -9596.861305658       193.075801942
      1527          763.500000         0.751227581       310.698919125     -9597.612579868     -9596.861352288       189.413884155
      1528          764.000000         0.753531472       311.651781624     -9597.614915516     -9596.861384044       180.026083082
      1529          764.500000         0.754283845       311.962954103     -9597.615641027     -9596.861357182       180.740478367
      1530          765.000000         0.753810498       311.767183428     -9597.615089659     -9596.861279161       183.283718195
      1531          765.500000         0.753201911       311.515479222     -9597.614420134     -9596.861218222       191.515234612
      1532          766.000000         0.753483583       311.631975477     -9597.614694090     -9596.861210506       186.964790031
      1533          766.500000         0.754859774       312.201151773     -9597.616125584     -9596.861265810       177.824221667
      1534          767.000000         0.756793191       313.000790443     -9597.618077240     -9596.861284048       181.736557309
      1535          767.500000         0.758910702       313.876568264     -9597.620151603     -9596.861240900       196.817197111
      1536          768.000000         0.761646070       315.007884377     -9597.622833235     -9596.861187164       199.512063317
      1537          768.500000         0.765547832       316.621607043     -9597.626771561     -9596.861223729       204.186997846
      1538          769.000000         0.769862581       318.406136638     -9597.631254928     -9596.861392348       183.591642313
      1539          769.500000         0.772140606       319.348301233     -9597.633729843     -9596.861589237       202.475019801
      1540          770.000000         0.769604684       318.299473648     -9597.631276952     -9596.861672268       186.231492292
      1541          770.500000         0.761309674       314.868754627     -9597.622846217     -9596.861536543       188.030348916
      1542          771.000000         0.749414260       309.948950996     -9597.610640095     -9596.861225835       183.690188266
      1543          771.500000         0.738451008       305.414678538     -9597.599373794     -9596.860922786       180.290106717
      1544          772.000000         0.732845768       303.096417017     -9597.593647137     -9596.860801369       178.850443542
      1545          772.500000         0.734222255       303.665716028     -9597.595178202     -9596.860955947       191.609377936
      1546          773.000000         0.740376970       306.211233685     -9597.601638646     -9596.861261676       186.324385691
      1547          773.500000         0.746799022       308.867319197     -9597.608333369     -9596.861534347       179.095514286
      1548          774.000000         0.749644815       310.044305853     -9597.611245734     -9596.861600919       172.488432236
      1549          774.500000         0.747869638       309.310113627     -9597.609352710     -9596.861483072       181.790733028
      1550          775.000000         0.743174197       307.368134287     -9597.604466313     -9596.861292116       177.474015653
      1551          775.500000         0.738392286       305.390391847     -9597.599544331     -9596.861152045       187.471856918
      1552          776.000000         0.735644352       304.253878392     -9597.596793970     -9596.861149618       182.010861523
      1553          776.500000         0.735195195       304.068112311     -9597.596457665     -9596.861262471       177.737592407
      1554          777.000000         0.735770260       304.305952465     -9597.597126755     -9596.861356495       177.721283976
      1555          777.500000         0.736219614       304.491799969     -9597.597550953     -9596.861331339       188.348159213
      1556          778.000000         0.736818636       304.739548707     -9597.598042543     -9596.861223907       188.774571624
      1557          778.500000         0.738708704       305.521258352     -9597.599884685     -9596.861175982       200.593361907
      1558          779.000000         0.742187256       306.959946968     -9597.603454435     -9596.861267179       195.364253696
      1559          779.500000         0.745820092       308.462445400     -9597.607236050     -9596.861415958       197.994931120
      1560          780.000000         0.747316901       309.081507946     -9597.608823476     -9596.861506575       195.779111110
      1561          780.500000         0.745237788       308.221611328     -9597.606703034     -9596.861465246       190.600044746
      1562          781.000000         0.739990227       306.051281570     -9597.601313696     -9596.861323469       192.881563600
      1563          781.500000         0.733564718       303.393766370     -9597.594720623     -9596.861155905       195.693517193
      1564          782.000000         0.728624276       301.350457352     -9597.589609880     -9596.860985604       191.595047601
      1565          782.500000         0.727715440       300.974573312     -9597.588588939     -9596.860873500       179.987398390
      1566          783.000000         0.732618504       303.002423380     -9597.593471644     -9596.860853140       172.199634306
      1567          783.500000         0.743477569       307.493605005     -9597.604474231     -9596.860996663       176.825805712
      1568          784.000000         0.758136032       313.556173559     -9597.619396339     -9596.861260307       172.418559417
      1569          784.500000         0.772740289       319.596323112     -9597.634258277     -9596.861517988       173.335762285
      1570          785.000000         0.783568446       324.074721675     -9597.645217643     -9596.861649198       181.161627360
      1571          785.500000         0.788633109       326.169407227     -9597.650260341     -9596.861627232       178.058094151
      1572          786.000000         0.788099762       325.948821156     -9597.649604553     -9596.861504791       175.428952616
      1573          786.500000         0.783784295       324.163994361     -9597.645121310     -9596.861337015       191.645569857
      1574          787.000000         0.778169948       321.841966456     -9597.639383001     -9596.861213053       190.087641582
      1575          787.500000         0.773322549       319.837138815     -9597.634470668     -9596.861148120       190.466843292
      1576          788.000000         0.770317611       318.594331895     -9597.631462018     -9596.861144407       187.003064409
      1577          788.500000         0.769392249       318.211612864     -9597.630549788     -9596.861157539       190.512238402
      1578          789.000000         0.770261098       318.570958676     -9597.631460913     -9596.861199815       170.507358663
      1579          789.500000         0.772119774       319.339685557     -9597.633388539     -9596.861268765       179.218322068
      1580          790.000000         0.773652608       319.973647606     -9597.634993514     -9596.861340905       176.594866689
      1581          790.500000         0.773538339       319.926387052     -9597.634890592     -9596.861352254       198.492875375
      1582          791.000000         0.771195120       318.957259243     -9597.632511286     -9596.861316166       187.639476832
      1583          791.500000         0.767002980       317.223439421     -9597.628261422     -9596.861258442       194.591605097
      1584          792.000000         0.761758808       315.054511473     -9597.622974474     -9596.861215666       179.219645616
      1585          792.500000         0.755979923       312.664432102     -9597.617206210     -9596.861226287       187.055908605
      1586          793.000000         0.749882457       310.142591905     -9597.611084211     -9596.861201754       187.181100383
      1587          793.500000         0.744106910       307.753893429     -9597.605209749     -9596.861102838       178.530571941
      1588          794.000000         0.740217809       306.145406692     -9597.601198771     -9596.860980962       190.960394543
      1589          794.500000         0.740074863       306.086286077     -9597.600992437     -9596.860917574       190.744029578
      1590          795.000000         0.744512199       307.921516177     -9597.605518576     -9596.861006377       185.718059249
      1591          795.500000         0.752509608       311.229150457     -9597.613701641     -9596.861192034       183.933897916
      1592          796.000000         0.761341274       314.881824129     -9597.622773662     -9596.861432388       177.793774951
      1593          796.500000         0.767494946       317.426910583     -9597.629139457     -9596.861644512       177.795050923
      1594          797.000000         0.768172590       317.707176261     -9597.629851961     -9596.861679371       181.979026698
      1595          797.500000         0.762895382       315.524584818     -9597.624408939     -9596.861513558       179.921176467
      1596          798.000000         0.754088121       311.882005179     -9597.615314536     -9596.861226414       170.174984250
      1597          798.500000         0.745822226       308.463327830     -9597.606824005     -9596.861001779       189.150596701
      1598          799.000000         0.741346493       306.612216960     -9597.602322455     -9596.860975962       185.401678752
      1599          799.500000         0.741227303       306.562921656     -9597.602337520     -9596.861110217       187.769511551
      1600          800.000000         0.743573838       307.533421068     -9597.604845526     -9596.861271688       187.688005827
      1601          800.500000         0.746019816       308.545048942     -9597.607319429     -9596.861299613       193.356025934
      1602          801.000000         0.747475354       309.147042270     -9597.608736800     -9596.861261446       186.339557379
      1603          801.500000         0.748008913       309.367716027     -9597.609261738     -9596.861252825       178.428704724
      1604          802.000000         0.747468657       309.144272543     -9597.608793589     -9596.861324932       169.414380942
      1605          802.500000         0.744929447       308.094085007     -9597.606299101     -9596.861369654       173.389777791
      1606          803.000000         0.739773208       305.961525051     -9597.601091137     -9596.861317929       176.060630661
      1607          803.500000         0.733045015       303.178823043     -9597.594175346     -9596.861130332       171.858524922
      1608          804.000000         0.727528782       300.897373868     -9597.588443693     -9596.860914911       171.592231706
      1609          804.500000         0.726408797       300.434161300     -9597.587197428     -9596.860788631       171.863406435
      1610          805.000000         0.731449250       302.518833420     -9597.592295917     -9596.860846667       191.774210948
      1611          805.500000         0.741731109       306.771289777     -9597.602829329     -9596.861098221       181.856834777
      1612          806.000000         0.753678753       311.712695490     -9597.615116518     -9596.861437765       192.306121863
      1613          806.500000         0.762565211       315.388030296     -9597.624260739     -9596.861695528       181.558476239
      1614          807.000000         0.764813703       316.317980134     -9597.626560539     -9596.861746836       189.981065907
      1615          807.500000         0.759780134       314.236154780     -9597.621360522     -9596.861580388       176.266131461
      1616          808.000000         0.749988307       310.186370088     -9597.611281922     -9596.861293615       183.056749273
      1617          808.500000         0.739752321       305.952886198     -9597.600795890     -9596.861043569       172.454026673
      1618          809.000000         0.733004209       303.161946494     -9597.593928136     -9596.860923926       172.712942861
      1619          809.500000         0.731515158       302.546092347     -9597.592497083     -9596.860981925       176.963021569
      1620          810.000000         0.734392265       303.736029821     -9597.595550097     -9596.861157833       177.662692767
      1621          810.500000         0.738882473       305.593127294     -9597.600227555     -9596.861345082       182.633371226
      1622          811.000000         0.741840606       306.816576668     -9597.603315289     -9596.861474682       185.838366196
      1623          811.500000         0.741144548       306.528695195     -9597.602629206     -9596.861484658       194.734234128
      1624          812.000000         0.736496549       304.606337329     -9597.597867295     -9596.861370745       176.789296895
      1625          812.500000         0.729310946       301.634456071     -9597.590521495     -9596.861210549       186.251504734
      1626          813.000000         0.721913124       298.574803556     -9597.582976208     -9596.861063084       176.351393342
      1627          813.500000         0.716660690       296.402458419     -9597.577604470     -9596.860943780       189.120714776
      1628          814.000000         0.715317225       295.846817058     -9597.576211174     -9596.860893949       199.689668495
      1629          814.500000         0.718559331       297.187714216     -9597.579501353     -9596.860942021       186.572827805
      1630          815.000000         0.725748061       300.160888753     -9597.586790439     -9596.861042377       183.209820684
      1631          815.500000         0.735361152       304.136750113     -9597.596503688     -9596.861142537       193.081708301
      1632          816.000000         0.745824841       308.464409369     -9597.607042234     -9596.861217393       195.063975330
      1633          816.500000         0.755856835       312.613524620     -9597.617162080     -9596.861305245       191.206933089
      1634          817.000000         0.764041749       315.998708768     -9597.625485977     -9596.861444228       200.462565940
      1635          817.500000         0.768498133       317.841817001     -9597.630076883     -9596.861578751       192.928778969
      1636          818.000000         0.767591337       317.466777085     -9597.629204316     -9596.861612978       185.705674671
      1637          818.500000         0.761454520       314.928661292     -9597.622908129     -9596.861453609       181.745746043
      1638          819.000000         0.752892598       311.387550803     -9597.614055848     -9596.861163250       177.125987712
      1639          819.500000         0.746367493       308.688844008     -9597.607294992     -9596.860927499       182.881436970
      1640          820.000000         0.745371845       308.277055506     -9597.606274554     -9596.860902709       182.169166967
      1641          820.500000         0.750211346       310.278616513     -9597.611311928     -9596.861100581       186.962777570
      1642          821.000000         0.758027082       313.511113357     -9597.619410981     -9596.861383898       187.967149679
      1643          821.500000         0.764751279       316.292162375     -9597.626338989     -9596.861587709       194.466305580
      1644          822.000000         0.767269983       317.333868702     -9597.628892528     -9596.861622545       192.411613729
      1645          822.500000         0.764790603       316.308426320     -9597.626263815     -9596.861473211       198.418138288
      1646          823.000000         0.759103292       313.956221053     -9597.620342982     -9596.861239690       193.504916381
      1647          823.500000         0.753237026       311.530002129     -9597.614326271     -9596.861089246       184.634728000
      1648          824.000000         0.749090250       309.814944276     -9597.610219084     -9596.861128834       182.019870825
      1649          824.500000         0.746293484       308.658234468     -9597.607524660     -9596.861231176       195.076260403
      1650          825.000000         0.743527840       307.514396753     -9597.604766671     -9596.861238831       172.244471803
      1651          825.500000         0.740548595       306.282215977     -9597.601686163     -9596.861137567       182.931108743
      1652          826.000000         0.738559784       305.459666905     -9597.599599494     -9596.861039710       176.594109964
      1653          826.500000         0.738904654       305.602300988     -9597.599946665     -9596.861042011       183.860696629
      1654          827.000000         0.741718227       306.765961971     -9597.602860010     -9596.861141783       181.637352426
      1655          827.500000         0.745633015       308.385072250     -9597.606938652     -9596.861305637       188.433446787
      1656          828.000000         0.748424973       309.539793484     -9597.609898685     -9596.861473712       187.598321378
      1657          828.500000         0.748010128       309.368218267     -9597.609582819     -9596.861572692       194.878483411
      1658          829.000000         0.743383590       307.454736492     -9597.604932245     -9596.861548655       191.168727372
      1659          829.500000         0.735256000       304.093260849     -9597.596673267     -9596.861417266       185.528101873
      1660          830.000000         0.725959320       300.248262628     -9597.587200550     -9596.861241230       182.062813673
      1661          830.500000         0.718389993       297.117677733     -9597.579503678     -9596.861113685       191.655682612
      1662          831.000000         0.714585797       295.544307218     -9597.575674836     -9596.861089038       192.720932432
      1663          831.500000         0.714876828       295.664674269     -9597.576036562     -9596.861159734       193.522984006
      1664          832.000000         0.718054789       296.979041479     -9597.579307921     -9596.861253132       176.074186616
      1665          832.500000         0.722260513       298.718479424     -9597.583600492     -9596.861339979       190.085511677
      1666          833.000000         0.725713225       300.146480808     -9597.587123695     -9596.861410470       186.912252024
      1667          833.500000         0.726907678       300.640492700     -9597.588357567     -9596.861449889       177.004595011
      1668          834.000000         0.724949995       299.830817784     -9597.586351932     -9596.861401938       194.598834556
      1669          834.500000         0.720234488       297.880539328     -9597.581505829     -9596.861271341       191.905797947
      1670          835.000000         0.714577793       295.540996688     -9597.575681466     -9596.861103673       177.977299411
      1671          835.500000         0.710462994       293.839164188     -9597.571410983     -9596.860947989       170.081200592
      1672          836.000000         0.710179255       293.721812768     -9597.571009933     -9596.860830679       177.714889228
      1673          836.500000         0.715360416       295.864680279     -9597.576162850     -9596.860802434       176.978040811
      1674          837.000000         0.726466966       300.458219418     -9597.587359130     -9596.860892163       177.036440726
      1675          837.500000         0.741954631       306.863735849     -9597.603086749     -9596.861132119       183.100930147
      1676          838.000000         0.758058795       313.524229367     -9597.619509681     -9596.861450886       175.264970385
      1677          838.500000         0.770213363       318.551216330     -9597.631875433     -9596.861662070       188.243435506
      1678          839.000000         0.775381640       320.688754756     -9597.637062456     -9596.861680816       189.430849276
      1679          839.500000         0.773379557       319.860717025     -9597.634933722     -9596.861554164       192.322374471
      1680          840.000000         0.766443231       316.991933537     -9597.627798879     -9596.861355648       196.432162665
      1681          840.500000         0.758011330       313.504598349     -9597.619150846     -9596.861139516       186.134495847
      1682          841.000000         0.751655787       310.876020122     -9597.612625386     -9596.860969599       189.285659466
      1683          841.500000         0.750107341       310.235601323     -9597.611017944     -9596.860910603       188.715959143
      1684          842.000000         0.754292121       311.966377198     -9597.615279143     -9596.860987022       186.582496606
      1685          842.500000         0.762882458       315.519239763     -9597.624056672     -9596.861174214       186.962634880
      1686          843.000000         0.772707876       319.582917468     -9597.634121949     -9596.861414073       193.307121228
      1687          843.500000         0.779833950       322.530178001     -9597.641446588     -9596.861612638       187.982842006
      1688          844.000000         0.780978731       323.003646183     -9597.642654645     -9596.861675913       187.765761986
      1689          844.500000         0.774834895       320.462627379     -9597.636412500     -9596.861577605       188.066924162
      1690          845.000000         0.762757751       315.467662473     -9597.624090975     -9596.861333224       187.783247001
      1691          845.500000         0.748492538       309.567737410     -9597.609506947     -9596.861014409       187.853524823
      1692          846.000000         0.736887972       304.768225152     -9597.597648554     -9596.860760582       192.878246758
      1693          846.500000         0.731914245       302.711149930     -9597.592587475     -9596.860673230       186.373372585
      1694          847.000000         0.734930788       303.958756982     -9597.595735079     -9596.860804291       187.833807670
      1695          847.500000         0.744246269       307.811530523     -9597.605311357     -9596.861065088       194.041780673
      1696          848.000000         0.756118645       312.721806119     -9597.617469900     -9596.861351254       187.758769371
      1697          848.500000         0.766402321       316.975013850     -9597.627977645     -9596.861575324       188.647740196
      1698          849.000000         0.771931571       319.261846800     -9597.633620288     -9596.861688717       186.202292576
      1699          849.500000         0.771287398       318.995424374     -9597.632962331     -9596.861674933       185.604642477
      1700          850.000000         0.765184376       316.471285981     -9597.626695798     -9596.861511422       197.321751915
      1701          850.500000         0.756501279       312.880058891     -9597.617743661     -9596.861242382       198.894479942
      1702          851.000000         0.749272448       309.890299269     -9597.610317708     -9596.861045259       195.154877204
      1703          851.500000         0.746585463       308.778993869     -9597.607607303     -9596.861021840       190.361949712
      1704          852.000000         0.748992030       309.774321684     -9597.610137874     -9596.861145844       183.643950127
      1705          852.500000         0.754772327       312.164984481     -9597.616072521     -9596.861300195       177.090007093
      1706          853.000000         0.761332937       314.878376032     -9597.622757172     -9596.861424235       176.994920596
      1707          853.500000         0.766339313       316.948954486     -9597.627843148     -9596.861503835       164.379761338
      1708          854.000000         0.768185843       317.712657728     -9597.629704808     -9596.861518965       179.915017139
      1709          854.500000         0.766230012       316.903748821     -9597.627682598     -9596.861452586       190.522905819
      1710          855.000000         0.761125451       314.792562371     -9597.622431980     -9596.861306529       193.642984942
      1711          855.500000         0.754911829       312.222681196     -9597.616014958     -9596.861103129       196.568505209
      1712          856.000000         0.750343832       310.333410887     -9597.611286417     -9596.860942586       195.807181589
      1713          856.500000         0.749652730       310.047579517     -9597.610544764     -9596.860892034       196.456022918
      1714          857.000000         0.753528220       311.650436477     -9597.614492720     -9596.860964500       189.708471552
      1715          857.500000         0.760903098       314.700599655     -9597.622019219     -9596.861116121       186.104098670
      1716          858.000000         0.769530154       318.268649040     -9597.630816439     -9596.861286285       195.215399388
      1717          858.500000         0.776970838       321.346028509     -9597.638382701     -9596.861411863       187.315328117
      1718          859.000000         0.781425819       323.188556561     -9597.642917433     -9596.861491614       183.143721070
      1719          859.500000         0.781966477       323.412166466     -9597.643498125     -9596.861531647       189.014637742
      1720          860.000000         0.778558459       322.002649981     -9597.640036297     -9596.861477838       177.918502074
      1721          860.500000         0.772603708       319.539834668     -9597.633883522     -9596.861279814       171.201030739
      1722          861.000000         0.767331728       317.359405858     -9597.628354631     -9596.861022903       192.183770955
      1723          861.500000         0.766411663       316.978877601     -9597.627332418     -9596.860920755       190.687943053
      1724          862.000000         0.771111084       318.922503101     -9597.632212603     -9596.861101519       180.190477006
      1725          862.500000         0.778868367       322.130824219     -9597.640276286     -9596.861407919       183.411358196
      1726          863.000000         0.785098375       324.707482374     -9597.646723549     -9596.861625174       181.217005253
      1727          863.500000         0.786402850       325.246998210     -9597.648041283     -9596.861638433       192.195799530
      1728          864.000000         0.782228327       323.520464309     -9597.643713995     -9596.861485668       192.102580160