SIESTA 1.3.7  -- [1.3f1 release] (04 Feb 2004)
Architecture  : mpif90
Compiler flags:  -O3 -check bounds -fp-model strict
PARALLEL version

* Running on   40 nodes in parallel
>> Start of run:  21-FEB-2023  14:40:14

                           ***********************       
                           *  WELCOME TO SIESTA  *       
                           ***********************       

reinit: Reading from standard input
************************** Dump of input data file ****************************
SystemName                   transport          # Descriptive name of the system
SystemLabel                     transport               # Short name for naming files
NumberOfAtoms    116
NumberOfSpecies                 4               # Number of species
PAO.BasisType                   split
%block ChemicalSpeciesLabel
1 79 Au
2 16 S
3 6  C
4 1  H
%endblock ChemicalSpeciesLabel
%block PAO.BasisSizes
S DZP
C DZP
H DZP
%endblock PAO.BasisSizes
%block PAO.Basis
  Au  2
n=6  0  1
6.500
1.00
n=5  2  1
5.850
1.00
%endblock PAO.Basis
%block PS.lmax
 Au   3
%endblock PS.lmax
LatticeConstant 1.000 Ang
%block LatticeVectors
   8.336     0.000   0.000        1
  0.000    8.336     0.000   1
  0.000   0.000    33.926  1
%endblock LatticeVectors
AtomicCoordinatesFormat Ang
%block AtomicCoordinatesAndAtomicSpecies
0.0 0.0 0.0 1 Au
0.0 4.168 0.0 1 Au
2.084 2.084 0.0 1 Au
2.084 6.252 0.0 1 Au
4.168 0.0 0.0 1 Au
4.168 4.168 0.0 1 Au
6.252 2.084 0.0 1 Au
6.252 6.252 0.0 1 Au
0.0 2.084 2.084 1 Au
0.0 6.252 2.084 1 Au
2.084 0.0 2.084 1 Au
2.084 4.168 2.084 1 Au
4.168 2.084 2.084 1 Au
4.168 6.252 2.084 1 Au
6.252 0.0 2.084 1 Au
6.252 4.168 2.084 1 Au
0.0 0.0 4.168 1 Au
0.0 4.168 4.168 1 Au
2.084 2.084 4.168 1 Au
2.084 6.252 4.168 1 Au
4.168 0.0 4.168 1 Au
4.168 4.168 4.168 1 Au
6.252 2.084 4.168 1 Au
6.252 6.252 4.168 1 Au
0.0 2.084 6.252 1 Au
0.0 6.252 6.252 1 Au
2.084 0.0 6.252 1 Au
2.084 4.168 6.252 1 Au
4.168 2.084 6.252 1 Au
4.168 6.252 6.252 1 Au
6.252 0.0 6.252 1 Au
6.252 4.168 6.252 1 Au
0.0 0.0 8.336 1 Au
0.0 4.168 8.336 1 Au
2.084 2.084 8.336 1 Au
2.084 6.252 8.336 1 Au
4.168 0.0 8.336 1 Au
4.168 4.168 8.336 1 Au
6.252 2.084 8.336 1 Au
6.252 6.252 8.336 1 Au
0.0 2.084 10.42 1 Au
0.0 6.252 10.42 1 Au
2.084 0.0 10.42 1 Au
2.084 4.168 10.42 1 Au
4.168 2.084 10.42 1 Au
4.168 6.252 10.42 1 Au
6.252 0.0 10.42 1 Au
6.252 4.168 10.42 1 Au
0.0 0.0 12.504 1 Au
0.0 4.168 12.504 1 Au
2.084 2.084 12.504 1 Au
2.084 6.252 12.504 1 Au
4.168 0.0 12.504 1 Au
4.168 4.168 12.504 1 Au
6.252 2.084 12.504 1 Au
6.252 6.252 12.504 1 Au
4.171 2.086 13.79 2 S
4.175 2.089 15.551 3 C
2.073 2.116 15.734 4 H
6.269 2.116 15.74 4 H
2.965 2.095 16.251 3 C
5.373 2.095 16.251 3 C
2.959 2.074 17.674 3 C
5.367 2.074 17.674 3 C
2.063 2.053 18.186 4 H
6.259 2.053 18.192 4 H
4.157 2.08 18.375 3 C
4.171 2.086 20.136 2 S
0.0 0.0 21.422 1 Au
0.0 4.168 21.422 1 Au
2.084 2.084 21.422 1 Au
2.084 6.252 21.422 1 Au
4.168 0.0 21.422 1 Au
4.168 4.168 21.422 1 Au
6.252 2.084 21.422 1 Au
6.252 6.252 21.422 1 Au
0.0 2.084 23.506 1 Au
0.0 6.252 23.506 1 Au
2.084 0.0 23.506 1 Au
2.084 4.168 23.506 1 Au
4.168 2.084 23.506 1 Au
4.168 6.252 23.506 1 Au
6.252 0.0 23.506 1 Au
6.252 4.168 23.506 1 Au
0.0 0.0 25.59 1 Au
0.0 4.168 25.59 1 Au
2.084 2.084 25.59 1 Au
2.084 6.252 25.59 1 Au
4.168 0.0 25.59 1 Au
4.168 4.168 25.59 1 Au
6.252 2.084 25.59 1 Au
6.252 6.252 25.59 1 Au
0.0 2.084 27.674 1 Au
0.0 6.252 27.674 1 Au
2.084 0.0 27.674 1 Au
2.084 4.168 27.674 1 Au
4.168 2.084 27.674 1 Au
4.168 6.252 27.674 1 Au
6.252 0.0 27.674 1 Au
6.252 4.168 27.674 1 Au
0.0 0.0 29.758 1 Au
0.0 4.168 29.758 1 Au
2.084 2.084 29.758 1 Au
2.084 6.252 29.758 1 Au
4.168 0.0 29.758 1 Au
4.168 4.168 29.758 1 Au
6.252 2.084 29.758 1 Au
6.252 6.252 29.758 1 Au
0.0 2.084 31.842 1 Au
0.0 6.252 31.842 1 Au
2.084 0.0 31.842 1 Au
2.084 4.168 31.842 1 Au
4.168 2.084 31.842 1 Au
4.168 6.252 31.842 1 Au
6.252 0.0 31.842 1 Au
6.252 4.168 31.842 1 Au
%endblock AtomicCoordinatesAndAtomicSpecies 	
%block kgrid_Monkhorst_Pack
  2   0   0     0.0
  0   2   0     0.0
  0   0   1     0.0
%endblock kgrid_Monkhorst_Pack
xc.functional		LDA		# 'LDA', 'GGA'
xc.authors 	 		CA		# 'CA'='PZ', 'PW92', 'PBE'
SpinPolarized			F		# 'T', 'F'		
#FixSpin           F
#TotalSpin        0.0
NonCollinearSpin		F		# 'T', 'F'
MeshCutoff 	 		    200 Ry		# Equivalent plane wave cutoff for the grid
MaxSCFIterations		10000
DM.MixingWeight			0.1
DM.NumberPulay			4	# Pulay convergency accelerator
DM.MixSCF1			    T
MixHamiltonian      T
DM.PulayOnFile			F		# Store in memory ('F') or in files ('T')
#DM.NumberKick         30
#DM.KickMixingWeight   0.1
DM.Tolerance 		1.0E-4
NeglNonOverlapInt		F		# 'F'=do not neglect
SolutionMethod			diagon
ElectronicTemperature		300 K		# Default value
DM.UseSaveDM 			T
#MD.UseSaveXV			T
#MD.UseSaveCG			T
WriteForces      T
WriteCoorXmol			T		# Write Atoms coordinates
SaveElectrostaticPotential      T
#SaveHS				T		# Save the Hamiltonian and Overlap matrices
SaveRho				T		# Save the valence pseudocharge density
#SaveDeltaRho			T
#WriteDenchar			T		# Write Denchar output
WriteMullikenPop		0 #write mulliken population of aromic and orbital charges
#-----
#smeagol
#-----
EMTransport              T
NEnergReal               0
NEnergImCircle           16
NEnergImLine             16
NPoles                   16
VInitial                 0.0d0 eV
VFinal                   0.0d0 eV
NIVPoints                0
Delta                    1.d-4
EnergLowestBound        -5.4d0 Ry
NSlices                  1
TrCoefficients		       T
AtomLeftVCte             2
AtomRightVCte            7
NTransmPoints            800
InitTransmRange          -2.0d0 Ry
FinalTransmRange          2.0d0 Ry
#PeriodicTransp           T
HartreeLeadsBottom      -15.2496 eV
HartreeLeadsLeft         0.000  Ang
HartreeLeadsRight        33.926  Ang
#FullSlope                T
	TRC.EMDOS                T
        TRC.EMPDOS               F
        TRC.LeadsDOS             T
        TRC.LeadsPDOS            F
        Sigma.PDOS               F
        Sigma.DOSVV              F
%block SaveBiasSteps
 0
%endblock SaveBiasSteps
************************** End of input data file *****************************

reinit: -----------------------------------------------------------------------
reinit: System Name: transport                                                  
reinit: -----------------------------------------------------------------------
reinit: System Label: transport           
reinit: -----------------------------------------------------------------------

initatom: Reading input for the pseudopotentials and atomic orbitals ----------
 Species number:            1  Label: Au Atomic number:          79
 Species number:            2  Label: S Atomic number:          16
 Species number:            3  Label: C Atomic number:           6
 Species number:            4  Label: H Atomic number:           1
Ground state valence configuration:   6s01  5d10
Reading pseudopotential information in formatted form from Au.psf
Ground state valence configuration:   3s02  3p04
Reading pseudopotential information in formatted form from S.psf
Ground state valence configuration:   2s02  2p02
Reading pseudopotential information in formatted form from C.psf
Ground state valence configuration:   1s01
Reading pseudopotential information in formatted form from H.psf
resizes: Read basis size for species S = dzp                 
resizes: Read basis size for species C = dzp                 
resizes: Read basis size for species H = dzp                 
relmxkb: Read Max KB Ang. Momentum=    3 for species Au
 Warning: Empty PAO shell. l =           1
 Will have a KB projector anyway...
For S, standard SIESTA heuristics set lmxkb to 3
 (one more than the basis l, including polarization orbitals).
Use PS.lmax or PS.KBprojectors blocks to override.
For C, standard SIESTA heuristics set lmxkb to 3
 (one more than the basis l, including polarization orbitals).
Use PS.lmax or PS.KBprojectors blocks to override.
For H, standard SIESTA heuristics set lmxkb to 2
 (one more than the basis l, including polarization orbitals).
Use PS.lmax or PS.KBprojectors blocks to override.

<basis_specs>
===============================================================================
Au                   Z=  79    Mass=  196.97        Charge=  0.0000    
Lmxo=2 Lmxkb=3     BasisType=split      Semic=F
L=0  Nsemic=0  Cnfigmx=6
          n=1  nzeta=1  polorb=0
               vcte:    0.0000    
               rinn:    0.0000    
                rcs:    6.5000    
            lambdas:    1.0000    
L=1  Nsemic=0  Cnfigmx=6
L=2  Nsemic=0  Cnfigmx=5
          n=1  nzeta=1  polorb=0
               vcte:    0.0000    
               rinn:    0.0000    
                rcs:    5.8500    
            lambdas:    1.0000    
-------------------------------------------------------------------------------
L=0  Nkbl=1  erefs: 0.17977+309
L=1  Nkbl=1  erefs: 0.17977+309
L=2  Nkbl=1  erefs: 0.17977+309
L=3  Nkbl=1  erefs: 0.17977+309
===============================================================================
</basis_specs>

atom: Called for Au  (Z =  79)

read_vps: Pseudopotential generation method:
read_vps: ATM3      Troullier-Martins                       

read_vps: Pseudopotential generated from a relativistic atomic calculation
read_vps: There are spin-orbit pseudopotentials available

read_vps: Valence configuration (pseudopotential and basis set generation):
6s( 1.00) rc: 2.18
6p( 0.00) rc: 2.47
5d(10.00) rc: 1.79
5f( 0.00) rc: 2.00
Total valence charge:   11.00000

read_vps: Pseudopotential includes a core correction:
read_vps: Pseudo-core for xc-correction
comcore: Pseudo-core radius Rcore=  4.027091

xc_check: Exchange-correlation functional:
xc_check: Ceperley-Alder
V l=0 = -2*Zval/r beyond r=  2.9833
V l=1 = -2*Zval/r beyond r=  2.9833
V l=2 = -2*Zval/r beyond r=  2.9833
V l=3 = -2*Zval/r beyond r=  2.9833
All V_l potentials equal beyond r=  2.4425
This should be close to max(r_c) in ps generation
All pots = -2*Zval/r beyond r=  2.9833

VLOCAL1: 99.0% of the norm of Vloc inside      7.276 Ry
VLOCAL1: 99.9% of the norm of Vloc inside     16.582 Ry
atom: Maximum radius for 4*pi*r*r*local-pseudopot. charge    2.94627
atom: Maximum radius for r*vlocal+2*Zval:    2.60007
GHOST: No ghost state for L =  0
GHOST: No ghost state for L =  1
GHOST: No ghost state for L =  2
GHOST: No ghost state for L =  3

KBgen: Kleinman-Bylander projectors: 
   l= 0   rc=  3.175745   el= -0.445638   Ekb=  5.072790   kbcos=  0.276607
   l= 1   rc=  3.256140   el= -0.066324   Ekb=  2.703235   kbcos=  0.227171
   l= 2   rc=  3.020861   el= -0.526103   Ekb= -4.704026   kbcos= -0.643795
   l= 3   rc=  3.466145   el=  0.003438   Ekb= -2.516122   kbcos= -0.010529

KBgen: Total number of  Kleinman-Bylander projectors:   16
atom: -------------------------------------------------------------------------

atom: SANKEY-TYPE ORBITALS:

SPLIT: Orbitals with angular momentum L= 0

SPLIT: Basis orbitals for state 6s

   izeta = 1
                 lambda =    1.000000
                     rc =    6.557093
                 energy =   -0.435455
                kinetic =    0.389259
    potential(screened) =   -0.824714
       potential(ionic) =   -8.467175

SPLIT: Orbitals with angular momentum L= 2

SPLIT: Basis orbitals for state 5d

   izeta = 1
                 lambda =    1.000000
                     rc =    5.933100
                 energy =   -0.524775
                kinetic =    4.913203
    potential(screened) =   -5.437978
       potential(ionic) =  -15.883506
atom: Total number of Sankey-type orbitals:  6

atm_pop: Valence configuration(local Pseudopot. screening):
 6s( 1.00)                                                            
 6p( 0.00)                                                            
 5d(10.00)                                                            
Vna: chval, zval:   11.00000  11.00000

Vna:  Cut-off radius for the neutral-atom potential:   6.557093

atom: _________________________________________________________________________

<basis_specs>
===============================================================================
S                    Z=  16    Mass=  32.070        Charge=  0.0000    
Lmxo=1 Lmxkb=3     BasisType=split      Semic=F
L=0  Nsemic=0  Cnfigmx=3
          n=1  nzeta=2  polorb=0
               vcte:    0.0000    
               rinn:    0.0000    
                rcs:    0.0000      0.0000    
            lambdas:    1.0000      1.0000    
L=1  Nsemic=0  Cnfigmx=3
          n=1  nzeta=2  polorb=1
               vcte:    0.0000    
               rinn:    0.0000    
                rcs:    0.0000      0.0000    
            lambdas:    1.0000      1.0000    
-------------------------------------------------------------------------------
L=0  Nkbl=1  erefs: 0.17977+309
L=1  Nkbl=1  erefs: 0.17977+309
L=2  Nkbl=1  erefs: 0.17977+309
L=3  Nkbl=1  erefs: 0.17977+309
===============================================================================
</basis_specs>

atom: Called for S   (Z =  16)

read_vps: Pseudopotential generation method:
read_vps: ATM3      Troullier-Martins                       

read_vps: Valence configuration (pseudopotential and basis set generation):
3s( 2.00) rc: 1.69
3p( 4.00) rc: 1.69
3d( 0.00) rc: 1.69
4f( 0.00) rc: 1.69
read_vps: Spin-orbit interaction is not included in this calculation
Total valence charge:    6.00000

xc_check: Exchange-correlation functional:
xc_check: Ceperley-Alder
V l=0 = -2*Zval/r beyond r=  2.0185
V l=1 = -2*Zval/r beyond r=  2.0185
V l=2 = -2*Zval/r beyond r=  2.0185
V l=3 = -2*Zval/r beyond r=  2.0185
All V_l potentials equal beyond r=  1.6733
This should be close to max(r_c) in ps generation
All pots = -2*Zval/r beyond r=  2.0185

VLOCAL1: 99.0% of the norm of Vloc inside     15.502 Ry
VLOCAL1: 99.9% of the norm of Vloc inside     35.330 Ry
atom: Maximum radius for 4*pi*r*r*local-pseudopot. charge    2.01846
atom: Maximum radius for r*vlocal+2*Zval:    1.75914
GHOST: No ghost state for L =  0
GHOST: No ghost state for L =  1
GHOST: No ghost state for L =  2
GHOST: No ghost state for L =  3

KBgen: Kleinman-Bylander projectors: 
   l= 0   rc=  2.203046   el= -1.261894   Ekb=  7.109550   kbcos=  0.344623
   l= 1   rc=  2.287235   el= -0.523623   Ekb=  2.800023   kbcos=  0.321647
   l= 2   rc=  2.345140   el=  0.002354   Ekb= -3.743884   kbcos= -0.046414
   l= 3   rc=  2.591797   el=  0.003460   Ekb= -1.010985   kbcos= -0.002968

KBgen: Total number of  Kleinman-Bylander projectors:   16
atom: -------------------------------------------------------------------------

atom: SANKEY-TYPE ORBITALS:
atom: Selected multiple-zeta basis: split     

SPLIT: Orbitals with angular momentum L= 0

SPLIT: Basis orbitals for state 3s

SPLIT: PAO cut-off radius determinated from an
SPLIT: energy shift=  0.020000 Ry

   izeta = 1
                 lambda =    1.000000
                     rc =    4.167740
                 energy =   -1.243381
                kinetic =    0.871454
    potential(screened) =   -2.114835
       potential(ionic) =   -7.151655

   izeta = 2
                 rmatch =    3.498614
              splitnorm =    0.150000
                 energy =   -1.090782
                kinetic =    1.336541
    potential(screened) =   -2.427323
       potential(ionic) =   -7.698399

SPLIT: Orbitals with angular momentum L= 1

SPLIT: Basis orbitals for state 3p

SPLIT: PAO cut-off radius determinated from an
SPLIT: energy shift=  0.020000 Ry

   izeta = 1
                 lambda =    1.000000
                     rc =    5.090524
                 energy =   -0.505955
                kinetic =    1.510143
    potential(screened) =   -2.016098
       potential(ionic) =   -6.693956

   izeta = 2
                 rmatch =    3.818549
              splitnorm =    0.150000
                 energy =   -0.355542
                kinetic =    2.185585
    potential(screened) =   -2.541127
       potential(ionic) =   -7.622701

POLgen: Perturbative polarization orbital with L=  2

POLgen: Polarization orbital for state 3p

   izeta = 1
                     rc =    5.090524
                 energy =    0.726673
                kinetic =    2.184032
    potential(screened) =   -1.457358
       potential(ionic) =   -5.701800
atom: Total number of Sankey-type orbitals: 13

atm_pop: Valence configuration(local Pseudopot. screening):
 3s( 2.00)                                                            
 3p( 4.00)                                                            
Vna: chval, zval:    6.00000   6.00000

Vna:  Cut-off radius for the neutral-atom potential:   5.090524

atom: _________________________________________________________________________

<basis_specs>
===============================================================================
C                    Z=   6    Mass=  12.010        Charge=  0.0000    
Lmxo=1 Lmxkb=3     BasisType=split      Semic=F
L=0  Nsemic=0  Cnfigmx=2
          n=1  nzeta=2  polorb=0
               vcte:    0.0000    
               rinn:    0.0000    
                rcs:    0.0000      0.0000    
            lambdas:    1.0000      1.0000    
L=1  Nsemic=0  Cnfigmx=2
          n=1  nzeta=2  polorb=1
               vcte:    0.0000    
               rinn:    0.0000    
                rcs:    0.0000      0.0000    
            lambdas:    1.0000      1.0000    
-------------------------------------------------------------------------------
L=0  Nkbl=1  erefs: 0.17977+309
L=1  Nkbl=1  erefs: 0.17977+309
L=2  Nkbl=1  erefs: 0.17977+309
L=3  Nkbl=1  erefs: 0.17977+309
===============================================================================
</basis_specs>

atom: Called for C   (Z =   6)

read_vps: Pseudopotential generation method:
read_vps: ATM3      Troullier-Martins                       

read_vps: Valence configuration (pseudopotential and basis set generation):
2s( 2.00) rc: 1.25
2p( 2.00) rc: 1.25
3d( 0.00) rc: 1.25
4f( 0.00) rc: 1.25
read_vps: Spin-orbit interaction is not included in this calculation
Total valence charge:    4.00000

xc_check: Exchange-correlation functional:
xc_check: Ceperley-Alder
V l=0 = -2*Zval/r beyond r=  1.3951
V l=1 = -2*Zval/r beyond r=  1.3777
V l=2 = -2*Zval/r beyond r=  1.3777
V l=3 = -2*Zval/r beyond r=  1.3777
All V_l potentials equal beyond r=  1.2311
This should be close to max(r_c) in ps generation
All pots = -2*Zval/r beyond r=  1.3951

VLOCAL1: 99.0% of the norm of Vloc inside     28.641 Ry
VLOCAL1: 99.9% of the norm of Vloc inside     65.273 Ry
atom: Maximum radius for 4*pi*r*r*local-pseudopot. charge    1.48507
atom: Maximum radius for r*vlocal+2*Zval:    1.27815
GHOST: No ghost state for L =  0
GHOST: No ghost state for L =  1
GHOST: No ghost state for L =  2
GHOST: No ghost state for L =  3

KBgen: Kleinman-Bylander projectors: 
   l= 0   rc=  1.600766   el= -1.001946   Ekb=  7.816946   kbcos=  0.279978
   l= 1   rc=  1.620907   el= -0.398597   Ekb= -4.829535   kbcos= -0.287433
   l= 2   rc=  1.836783   el=  0.002326   Ekb= -1.327964   kbcos= -0.005365
   l= 3   rc=  1.979871   el=  0.003420   Ekb= -0.522285   kbcos= -0.000569

KBgen: Total number of  Kleinman-Bylander projectors:   16
atom: -------------------------------------------------------------------------

atom: SANKEY-TYPE ORBITALS:
atom: Selected multiple-zeta basis: split     

SPLIT: Orbitals with angular momentum L= 0

SPLIT: Basis orbitals for state 2s

SPLIT: PAO cut-off radius determinated from an
SPLIT: energy shift=  0.020000 Ry

   izeta = 1
                 lambda =    1.000000
                     rc =    4.191849
                 energy =   -0.983900
                kinetic =    0.918801
    potential(screened) =   -1.902702
       potential(ionic) =   -5.506899

   izeta = 2
                 rmatch =    3.431921
              splitnorm =    0.150000
                 energy =   -0.849361
                kinetic =    1.377262
    potential(screened) =   -2.226623
       potential(ionic) =   -6.060758

SPLIT: Orbitals with angular momentum L= 1

SPLIT: Basis orbitals for state 2p

SPLIT: PAO cut-off radius determinated from an
SPLIT: energy shift=  0.020000 Ry

   izeta = 1
                 lambda =    1.000000
                     rc =    4.870301
                 energy =   -0.379088
                kinetic =    2.614064
    potential(screened) =   -2.993152
       potential(ionic) =   -6.506293

   izeta = 2
                 rmatch =    3.475094
              splitnorm =    0.150000
                 energy =   -0.215528
                kinetic =    3.940460
    potential(screened) =   -4.155988
       potential(ionic) =   -8.054000

POLgen: Perturbative polarization orbital with L=  2

POLgen: Polarization orbital for state 2p

   izeta = 1
                     rc =    4.870301
                 energy =    1.279486
                kinetic =    2.608016
    potential(screened) =   -1.328529
       potential(ionic) =   -4.267494
atom: Total number of Sankey-type orbitals: 13

atm_pop: Valence configuration(local Pseudopot. screening):
 2s( 2.00)                                                            
 2p( 2.00)                                                            
Vna: chval, zval:    4.00000   4.00000

Vna:  Cut-off radius for the neutral-atom potential:   4.870301

atom: _________________________________________________________________________

<basis_specs>
===============================================================================
H                    Z=   1    Mass=  1.0100        Charge=  0.0000    
Lmxo=0 Lmxkb=2     BasisType=split      Semic=F
L=0  Nsemic=0  Cnfigmx=1
          n=1  nzeta=2  polorb=1
               vcte:    0.0000    
               rinn:    0.0000    
                rcs:    0.0000      0.0000    
            lambdas:    1.0000      1.0000    
-------------------------------------------------------------------------------
L=0  Nkbl=1  erefs: 0.17977+309
L=1  Nkbl=1  erefs: 0.17977+309
L=2  Nkbl=1  erefs: 0.17977+309
===============================================================================
</basis_specs>

atom: Called for H   (Z =   1)

read_vps: Pseudopotential generation method:
read_vps: ATM3      Troullier-Martins                       

read_vps: Valence configuration (pseudopotential and basis set generation):
1s( 1.00) rc: 1.25
2p( 0.00) rc: 1.25
3d( 0.00) rc: 1.25
read_vps: Spin-orbit interaction is not included in this calculation
Total valence charge:    1.00000

xc_check: Exchange-correlation functional:
xc_check: Ceperley-Alder
V l=0 = -2*Zval/r beyond r=  1.2343
V l=1 = -2*Zval/r beyond r=  1.2189
V l=2 = -2*Zval/r beyond r=  1.2189
All V_l potentials equal beyond r=  1.2343
This should be close to max(r_c) in ps generation
All pots = -2*Zval/r beyond r=  1.2343

VLOCAL1: 99.0% of the norm of Vloc inside     28.493 Ry
VLOCAL1: 99.9% of the norm of Vloc inside     64.935 Ry
atom: Maximum radius for 4*pi*r*r*local-pseudopot. charge    1.45251
atom: Maximum radius for r*vlocal+2*Zval:    1.21892
GHOST: No ghost state for L =  0
GHOST: No ghost state for L =  1
GHOST: No ghost state for L =  2

KBgen: Kleinman-Bylander projectors: 
   l= 0   rc=  1.364359   el= -0.467325   Ekb= -2.005361   kbcos= -0.336422
   l= 1   rc=  1.434438   el=  0.001430   Ekb= -0.501708   kbcos= -0.021697
   l= 2   rc=  1.470814   el=  0.002365   Ekb= -0.190555   kbcos= -0.002281

KBgen: Total number of  Kleinman-Bylander projectors:    9
atom: -------------------------------------------------------------------------

atom: SANKEY-TYPE ORBITALS:
atom: Selected multiple-zeta basis: split     

SPLIT: Orbitals with angular momentum L= 0

SPLIT: Basis orbitals for state 1s

SPLIT: PAO cut-off radius determinated from an
SPLIT: energy shift=  0.020000 Ry

   izeta = 1
                 lambda =    1.000000
                     rc =    4.828263
                 energy =   -0.449375
                kinetic =    0.929372
    potential(screened) =   -1.378747
       potential(ionic) =   -1.915047

   izeta = 2
                 rmatch =    3.854947
              splitnorm =    0.150000
                 energy =   -0.335649
                kinetic =    1.505971
    potential(screened) =   -1.841620
       potential(ionic) =   -2.413776

POLgen: Perturbative polarization orbital with L=  1

POLgen: Polarization orbital for state 1s

   izeta = 1
                     rc =    4.828263
                 energy =    0.706972
                kinetic =    1.396397
    potential(screened) =   -0.689424
       potential(ionic) =   -1.169792
atom: Total number of Sankey-type orbitals:  5

atm_pop: Valence configuration(local Pseudopot. screening):
 1s( 1.00)                                                            
Vna: chval, zval:    1.00000   1.00000

Vna:  Cut-off radius for the neutral-atom potential:   4.828263

atom: _________________________________________________________________________

prinput: Basis input ----------------------------------------------------------

PAO.BasisType split     

%block ChemicalSpeciesLabel
    1   79 Au                      # Species index, atomic number, species label
    2   16 S                       # Species index, atomic number, species label
    3    6 C                       # Species index, atomic number, species label
    4    1 H                       # Species index, atomic number, species label
%endblock ChemicalSpeciesLabel

%block PAO.Basis                 # Define Basis set
Au          2                    # Species label, number of l-shells
 n=6   0   1                         # n, l, Nzeta 
   6.557   
   1.000   
 n=5   2   1                         # n, l, Nzeta 
   5.933   
   1.000   
S           2                    # Species label, number of l-shells
 n=3   0   2                         # n, l, Nzeta 
   4.168      3.499   
   1.000      1.000   
 n=3   1   2 P   1                   # n, l, Nzeta, Polarization, NzetaPol
   5.091      3.819   
   1.000      1.000   
C           2                    # Species label, number of l-shells
 n=2   0   2                         # n, l, Nzeta 
   4.192      3.432   
   1.000      1.000   
 n=2   1   2 P   1                   # n, l, Nzeta, Polarization, NzetaPol
   4.870      3.475   
   1.000      1.000   
H           1                    # Species label, number of l-shells
 n=1   0   2 P   1                   # n, l, Nzeta, Polarization, NzetaPol
   4.828      3.855   
   1.000      1.000   
%endblock PAO.Basis

prinput: ----------------------------------------------------------------------


siesta: ******************** Simulation parameters ****************************
siesta:
siesta: The following are some of the parameters of the simulation.
siesta: A complete list of the parameters used, including defect values,
siesta: can be found in file out.fdf
siesta:
coor:   Atomic-coordinates input format  =     Cartesian coordinates
coor:                                          (in Angstroms)
redata: Number of spin components        =     1
redata: SpinOrbit                        =     0
redata: Long output                      =     F
redata: Number of Atomic Species         =     4
redata: Charge density info will appear in .RHO file
redata: Write Mulliken Pop.              =     NO
redata: Write Hamilton Pop.              =     NO
redata: Mesh Cutoff                      =   200.0000  Ry
redata: Net charge of the system         =     0.0000 |e|
redata: Max. number of SCF Iter          = 10000
redata: One Pulay mixing every           =     4 iterations
redata: Mix DM in first SCF step ?       =     T
redata: Write Pulay info on disk?        =     F
redata: New DM Mixing Weight             =     0.1000
redata: No kicks to SCF
redata: DM Mixing Weight for Kicks       =     0.5000
redata: DM Tolerance for SCF             =     0.000100
redata: Use continuation files for DM    =     T
redata: Neglect nonoverlap interactions  =     F
redata: Method of Calculation            =     Diagonalization
redata: Divide and Conquer               =     F
redata: Electronic Temperature           =     0.0019  Ry
redata: Fix the spin of the system       =     F
redata: Dynamics option                  =     CG coord. optimization
redata: Variable cell                    =     F
redata: Use continuation files for CG    =     F
redata: Maximum number of CG moves       =     0
redata: Max atomic displ per move        =     0.2000  Bohr
redata: Force tolerance                  =     0.0016  Ry/Bohr
redata: ***********************************************************************

siesta: Atomic coordinates (Bohr) and species
siesta:      0.00000   0.00000   0.00000  1        1
siesta:      0.00000   7.87638   0.00000  1        2
siesta:      3.93819   3.93819   0.00000  1        3
siesta:      3.93819  11.81457   0.00000  1        4
siesta:      7.87638   0.00000   0.00000  1        5
siesta:      7.87638   7.87638   0.00000  1        6
siesta:     11.81457   3.93819   0.00000  1        7
siesta:     11.81457  11.81457   0.00000  1        8
siesta:      0.00000   3.93819   3.93819  1        9
siesta:      0.00000  11.81457   3.93819  1       10
siesta:      3.93819   0.00000   3.93819  1       11
siesta:      3.93819   7.87638   3.93819  1       12
siesta:      7.87638   3.93819   3.93819  1       13
siesta:      7.87638  11.81457   3.93819  1       14
siesta:     11.81457   0.00000   3.93819  1       15
siesta:     11.81457   7.87638   3.93819  1       16
siesta:      0.00000   0.00000   7.87638  1       17
siesta:      0.00000   7.87638   7.87638  1       18
siesta:      3.93819   3.93819   7.87638  1       19
siesta:      3.93819  11.81457   7.87638  1       20
siesta:      7.87638   0.00000   7.87638  1       21
siesta:      7.87638   7.87638   7.87638  1       22
siesta:     11.81457   3.93819   7.87638  1       23
siesta:     11.81457  11.81457   7.87638  1       24
siesta:      0.00000   3.93819  11.81457  1       25
siesta:      0.00000  11.81457  11.81457  1       26
siesta:      3.93819   0.00000  11.81457  1       27
siesta:      3.93819   7.87638  11.81457  1       28
siesta:      7.87638   3.93819  11.81457  1       29
siesta:      7.87638  11.81457  11.81457  1       30
siesta:     11.81457   0.00000  11.81457  1       31
siesta:     11.81457   7.87638  11.81457  1       32
siesta:      0.00000   0.00000  15.75276  1       33
siesta:      0.00000   7.87638  15.75276  1       34
siesta:      3.93819   3.93819  15.75276  1       35
siesta:      3.93819  11.81457  15.75276  1       36
siesta:      7.87638   0.00000  15.75276  1       37
siesta:      7.87638   7.87638  15.75276  1       38
siesta:     11.81457   3.93819  15.75276  1       39
siesta:     11.81457  11.81457  15.75276  1       40
siesta:      0.00000   3.93819  19.69095  1       41
siesta:      0.00000  11.81457  19.69095  1       42
siesta:      3.93819   0.00000  19.69095  1       43
siesta:      3.93819   7.87638  19.69095  1       44
siesta:      7.87638   3.93819  19.69095  1       45
siesta:      7.87638  11.81457  19.69095  1       46
siesta:     11.81457   0.00000  19.69095  1       47
siesta:     11.81457   7.87638  19.69095  1       48
siesta:      0.00000   0.00000  23.62914  1       49
siesta:      0.00000   7.87638  23.62914  1       50
siesta:      3.93819   3.93819  23.62914  1       51
siesta:      3.93819  11.81457  23.62914  1       52
siesta:      7.87638   0.00000  23.62914  1       53
siesta:      7.87638   7.87638  23.62914  1       54
siesta:     11.81457   3.93819  23.62914  1       55
siesta:     11.81457  11.81457  23.62914  1       56
siesta:      7.88205   3.94197  26.05933  2       57
siesta:      7.88961   3.94764  29.38714  3       58
siesta:      3.91740   3.99866  29.73296  4       59
siesta:     11.84670   3.99866  29.74430  4       60
siesta:      5.60304   3.95898  30.70995  3       61
siesta:     10.15350   3.95898  30.70995  3       62
siesta:      5.59170   3.91929  33.39903  3       63
siesta:     10.14216   3.91929  33.39903  3       64
siesta:      3.89851   3.87961  34.36657  4       65
siesta:     11.82780   3.87961  34.37791  4       66
siesta:      7.85559   3.93063  34.72373  3       67
siesta:      7.88205   3.94197  38.05154  2       68
siesta:      0.00000   0.00000  40.48173  1       69
siesta:      0.00000   7.87638  40.48173  1       70
siesta:      3.93819   3.93819  40.48173  1       71
siesta:      3.93819  11.81457  40.48173  1       72
siesta:      7.87638   0.00000  40.48173  1       73
siesta:      7.87638   7.87638  40.48173  1       74
siesta:     11.81457   3.93819  40.48173  1       75
siesta:     11.81457  11.81457  40.48173  1       76
siesta:      0.00000   3.93819  44.41992  1       77
siesta:      0.00000  11.81457  44.41992  1       78
siesta:      3.93819   0.00000  44.41992  1       79
siesta:      3.93819   7.87638  44.41992  1       80
siesta:      7.87638   3.93819  44.41992  1       81
siesta:      7.87638  11.81457  44.41992  1       82
siesta:     11.81457   0.00000  44.41992  1       83
siesta:     11.81457   7.87638  44.41992  1       84
siesta:      0.00000   0.00000  48.35811  1       85
siesta:      0.00000   7.87638  48.35811  1       86
siesta:      3.93819   3.93819  48.35811  1       87
siesta:      3.93819  11.81457  48.35811  1       88
siesta:      7.87638   0.00000  48.35811  1       89
siesta:      7.87638   7.87638  48.35811  1       90
siesta:     11.81457   3.93819  48.35811  1       91
siesta:     11.81457  11.81457  48.35811  1       92
siesta:      0.00000   3.93819  52.29630  1       93
siesta:      0.00000  11.81457  52.29630  1       94
siesta:      3.93819   0.00000  52.29630  1       95
siesta:      3.93819   7.87638  52.29630  1       96
siesta:      7.87638   3.93819  52.29630  1       97
siesta:      7.87638  11.81457  52.29630  1       98
siesta:     11.81457   0.00000  52.29630  1       99
siesta:     11.81457   7.87638  52.29630  1      100
siesta:      0.00000   0.00000  56.23449  1      101
siesta:      0.00000   7.87638  56.23449  1      102
siesta:      3.93819   3.93819  56.23449  1      103
siesta:      3.93819  11.81457  56.23449  1      104
siesta:      7.87638   0.00000  56.23449  1      105
siesta:      7.87638   7.87638  56.23449  1      106
siesta:     11.81457   3.93819  56.23449  1      107
siesta:     11.81457  11.81457  56.23449  1      108
siesta:      0.00000   3.93819  60.17268  1      109
siesta:      0.00000  11.81457  60.17268  1      110
siesta:      3.93819   0.00000  60.17268  1      111
siesta:      3.93819   7.87638  60.17268  1      112
siesta:      7.87638   3.93819  60.17268  1      113
siesta:      7.87638  11.81457  60.17268  1      114
siesta:     11.81457   0.00000  60.17268  1      115
siesta:     11.81457   7.87638  60.17268  1      116

initatomlists: Number of atoms, orbitals, and projectors:    116   748  1828

siesta: System type = bulk      
 Nodes, Orbitals          40         748
 blocksizedefault           8

* ProcessorY, Blocksize:    5   8


siesta: k-grid: Number of k-points =     4
siesta: k-grid: Cutoff             =     8.336 Ang
siesta: k-grid: Supercell and displacements
siesta: k-grid:    2   0   0      0.000
siesta: k-grid:    0   2   0      0.000
siesta: k-grid:    0   0   1      0.000
siesta: overlap:  rmaxh   veclen  direction
siesta: overlap:  20.0465 15.7528   1
siesta: overlap:  rmaxh   veclen  direction
siesta: overlap:  20.0465 15.7528   2
siesta: overlap:  rmaxh   veclen  direction
siesta: overlap:  20.0465 64.1109   3
 label:           1 Au                             1 s      
 label:           2 Au                             1 dxy    
 label:           3 Au                             1 dyz    
 label:           4 Au                             1 dz2    
 label:           5 Au                             1 dxz    
 label:           6 Au                             1 dx2-y2 
 label:           7 Au                             2 s      
 label:           8 Au                             2 dxy    
 label:           9 Au                             2 dyz    
 label:          10 Au                             2 dz2    
 label:          11 Au                             2 dxz    
 label:          12 Au                             2 dx2-y2 
 label:          13 Au                             3 s      
 label:          14 Au                             3 dxy    
 label:          15 Au                             3 dyz    
 label:          16 Au                             3 dz2    
 label:          17 Au                             3 dxz    
 label:          18 Au                             3 dx2-y2 
 label:          19 Au                             4 s      
 label:          20 Au                             4 dxy    
 label:          21 Au                             4 dyz    
 label:          22 Au                             4 dz2    
 label:          23 Au                             4 dxz    
 label:          24 Au                             4 dx2-y2 
 label:          25 Au                             5 s      
 label:          26 Au                             5 dxy    
 label:          27 Au                             5 dyz    
 label:          28 Au                             5 dz2    
 label:          29 Au                             5 dxz    
 label:          30 Au                             5 dx2-y2 
 label:          31 Au                             6 s      
 label:          32 Au                             6 dxy    
 label:          33 Au                             6 dyz    
 label:          34 Au                             6 dz2    
 label:          35 Au                             6 dxz    
 label:          36 Au                             6 dx2-y2 
 label:          37 Au                             7 s      
 label:          38 Au                             7 dxy    
 label:          39 Au                             7 dyz    
 label:          40 Au                             7 dz2    
 label:          41 Au                             7 dxz    
 label:          42 Au                             7 dx2-y2 
 label:          43 Au                             8 s      
 label:          44 Au                             8 dxy    
 label:          45 Au                             8 dyz    
 label:          46 Au                             8 dz2    
 label:          47 Au                             8 dxz    
 label:          48 Au                             8 dx2-y2 
 label:          49 Au                             9 s      
 label:          50 Au                             9 dxy    
 label:          51 Au                             9 dyz    
 label:          52 Au                             9 dz2    
 label:          53 Au                             9 dxz    
 label:          54 Au                             9 dx2-y2 
 label:          55 Au                            10 s      
 label:          56 Au                            10 dxy    
 label:          57 Au                            10 dyz    
 label:          58 Au                            10 dz2    
 label:          59 Au                            10 dxz    
 label:          60 Au                            10 dx2-y2 
 label:          61 Au                            11 s      
 label:          62 Au                            11 dxy    
 label:          63 Au                            11 dyz    
 label:          64 Au                            11 dz2    
 label:          65 Au                            11 dxz    
 label:          66 Au                            11 dx2-y2 
 label:          67 Au                            12 s      
 label:          68 Au                            12 dxy    
 label:          69 Au                            12 dyz    
 label:          70 Au                            12 dz2    
 label:          71 Au                            12 dxz    
 label:          72 Au                            12 dx2-y2 
 label:          73 Au                            13 s      
 label:          74 Au                            13 dxy    
 label:          75 Au                            13 dyz    
 label:          76 Au                            13 dz2    
 label:          77 Au                            13 dxz    
 label:          78 Au                            13 dx2-y2 
 label:          79 Au                            14 s      
 label:          80 Au                            14 dxy    
 label:          81 Au                            14 dyz    
 label:          82 Au                            14 dz2    
 label:          83 Au                            14 dxz    
 label:          84 Au                            14 dx2-y2 
 label:          85 Au                            15 s      
 label:          86 Au                            15 dxy    
 label:          87 Au                            15 dyz    
 label:          88 Au                            15 dz2    
 label:          89 Au                            15 dxz    
 label:          90 Au                            15 dx2-y2 
 label:          91 Au                            16 s      
 label:          92 Au                            16 dxy    
 label:          93 Au                            16 dyz    
 label:          94 Au                            16 dz2    
 label:          95 Au                            16 dxz    
 label:          96 Au                            16 dx2-y2 
 label:          97 Au                            17 s      
 label:          98 Au                            17 dxy    
 label:          99 Au                            17 dyz    
 label:         100 Au                            17 dz2    
 label:         101 Au                            17 dxz    
 label:         102 Au                            17 dx2-y2 
 label:         103 Au                            18 s      
 label:         104 Au                            18 dxy    
 label:         105 Au                            18 dyz    
 label:         106 Au                            18 dz2    
 label:         107 Au                            18 dxz    
 label:         108 Au                            18 dx2-y2 
 label:         109 Au                            19 s      
 label:         110 Au                            19 dxy    
 label:         111 Au                            19 dyz    
 label:         112 Au                            19 dz2    
 label:         113 Au                            19 dxz    
 label:         114 Au                            19 dx2-y2 
 label:         115 Au                            20 s      
 label:         116 Au                            20 dxy    
 label:         117 Au                            20 dyz    
 label:         118 Au                            20 dz2    
 label:         119 Au                            20 dxz    
 label:         120 Au                            20 dx2-y2 
 label:         121 Au                            21 s      
 label:         122 Au                            21 dxy    
 label:         123 Au                            21 dyz    
 label:         124 Au                            21 dz2    
 label:         125 Au                            21 dxz    
 label:         126 Au                            21 dx2-y2 
 label:         127 Au                            22 s      
 label:         128 Au                            22 dxy    
 label:         129 Au                            22 dyz    
 label:         130 Au                            22 dz2    
 label:         131 Au                            22 dxz    
 label:         132 Au                            22 dx2-y2 
 label:         133 Au                            23 s      
 label:         134 Au                            23 dxy    
 label:         135 Au                            23 dyz    
 label:         136 Au                            23 dz2    
 label:         137 Au                            23 dxz    
 label:         138 Au                            23 dx2-y2 
 label:         139 Au                            24 s      
 label:         140 Au                            24 dxy    
 label:         141 Au                            24 dyz    
 label:         142 Au                            24 dz2    
 label:         143 Au                            24 dxz    
 label:         144 Au                            24 dx2-y2 
 label:         145 Au                            25 s      
 label:         146 Au                            25 dxy    
 label:         147 Au                            25 dyz    
 label:         148 Au                            25 dz2    
 label:         149 Au                            25 dxz    
 label:         150 Au                            25 dx2-y2 
 label:         151 Au                            26 s      
 label:         152 Au                            26 dxy    
 label:         153 Au                            26 dyz    
 label:         154 Au                            26 dz2    
 label:         155 Au                            26 dxz    
 label:         156 Au                            26 dx2-y2 
 label:         157 Au                            27 s      
 label:         158 Au                            27 dxy    
 label:         159 Au                            27 dyz    
 label:         160 Au                            27 dz2    
 label:         161 Au                            27 dxz    
 label:         162 Au                            27 dx2-y2 
 label:         163 Au                            28 s      
 label:         164 Au                            28 dxy    
 label:         165 Au                            28 dyz    
 label:         166 Au                            28 dz2    
 label:         167 Au                            28 dxz    
 label:         168 Au                            28 dx2-y2 
 label:         169 Au                            29 s      
 label:         170 Au                            29 dxy    
 label:         171 Au                            29 dyz    
 label:         172 Au                            29 dz2    
 label:         173 Au                            29 dxz    
 label:         174 Au                            29 dx2-y2 
 label:         175 Au                            30 s      
 label:         176 Au                            30 dxy    
 label:         177 Au                            30 dyz    
 label:         178 Au                            30 dz2    
 label:         179 Au                            30 dxz    
 label:         180 Au                            30 dx2-y2 
 label:         181 Au                            31 s      
 label:         182 Au                            31 dxy    
 label:         183 Au                            31 dyz    
 label:         184 Au                            31 dz2    
 label:         185 Au                            31 dxz    
 label:         186 Au                            31 dx2-y2 
 label:         187 Au                            32 s      
 label:         188 Au                            32 dxy    
 label:         189 Au                            32 dyz    
 label:         190 Au                            32 dz2    
 label:         191 Au                            32 dxz    
 label:         192 Au                            32 dx2-y2 
 label:         193 Au                            33 s      
 label:         194 Au                            33 dxy    
 label:         195 Au                            33 dyz    
 label:         196 Au                            33 dz2    
 label:         197 Au                            33 dxz    
 label:         198 Au                            33 dx2-y2 
 label:         199 Au                            34 s      
 label:         200 Au                            34 dxy    
 label:         201 Au                            34 dyz    
 label:         202 Au                            34 dz2    
 label:         203 Au                            34 dxz    
 label:         204 Au                            34 dx2-y2 
 label:         205 Au                            35 s      
 label:         206 Au                            35 dxy    
 label:         207 Au                            35 dyz    
 label:         208 Au                            35 dz2    
 label:         209 Au                            35 dxz    
 label:         210 Au                            35 dx2-y2 
 label:         211 Au                            36 s      
 label:         212 Au                            36 dxy    
 label:         213 Au                            36 dyz    
 label:         214 Au                            36 dz2    
 label:         215 Au                            36 dxz    
 label:         216 Au                            36 dx2-y2 
 label:         217 Au                            37 s      
 label:         218 Au                            37 dxy    
 label:         219 Au                            37 dyz    
 label:         220 Au                            37 dz2    
 label:         221 Au                            37 dxz    
 label:         222 Au                            37 dx2-y2 
 label:         223 Au                            38 s      
 label:         224 Au                            38 dxy    
 label:         225 Au                            38 dyz    
 label:         226 Au                            38 dz2    
 label:         227 Au                            38 dxz    
 label:         228 Au                            38 dx2-y2 
 label:         229 Au                            39 s      
 label:         230 Au                            39 dxy    
 label:         231 Au                            39 dyz    
 label:         232 Au                            39 dz2    
 label:         233 Au                            39 dxz    
 label:         234 Au                            39 dx2-y2 
 label:         235 Au                            40 s      
 label:         236 Au                            40 dxy    
 label:         237 Au                            40 dyz    
 label:         238 Au                            40 dz2    
 label:         239 Au                            40 dxz    
 label:         240 Au                            40 dx2-y2 
 label:         241 Au                            41 s      
 label:         242 Au                            41 dxy    
 label:         243 Au                            41 dyz    
 label:         244 Au                            41 dz2    
 label:         245 Au                            41 dxz    
 label:         246 Au                            41 dx2-y2 
 label:         247 Au                            42 s      
 label:         248 Au                            42 dxy    
 label:         249 Au                            42 dyz    
 label:         250 Au                            42 dz2    
 label:         251 Au                            42 dxz    
 label:         252 Au                            42 dx2-y2 
 label:         253 Au                            43 s      
 label:         254 Au                            43 dxy    
 label:         255 Au                            43 dyz    
 label:         256 Au                            43 dz2    
 label:         257 Au                            43 dxz    
 label:         258 Au                            43 dx2-y2 
 label:         259 Au                            44 s      
 label:         260 Au                            44 dxy    
 label:         261 Au                            44 dyz    
 label:         262 Au                            44 dz2    
 label:         263 Au                            44 dxz    
 label:         264 Au                            44 dx2-y2 
 label:         265 Au                            45 s      
 label:         266 Au                            45 dxy    
 label:         267 Au                            45 dyz    
 label:         268 Au                            45 dz2    
 label:         269 Au                            45 dxz    
 label:         270 Au                            45 dx2-y2 
 label:         271 Au                            46 s      
 label:         272 Au                            46 dxy    
 label:         273 Au                            46 dyz    
 label:         274 Au                            46 dz2    
 label:         275 Au                            46 dxz    
 label:         276 Au                            46 dx2-y2 
 label:         277 Au                            47 s      
 label:         278 Au                            47 dxy    
 label:         279 Au                            47 dyz    
 label:         280 Au                            47 dz2    
 label:         281 Au                            47 dxz    
 label:         282 Au                            47 dx2-y2 
 label:         283 Au                            48 s      
 label:         284 Au                            48 dxy    
 label:         285 Au                            48 dyz    
 label:         286 Au                            48 dz2    
 label:         287 Au                            48 dxz    
 label:         288 Au                            48 dx2-y2 
 label:         289 Au                            49 s      
 label:         290 Au                            49 dxy    
 label:         291 Au                            49 dyz    
 label:         292 Au                            49 dz2    
 label:         293 Au                            49 dxz    
 label:         294 Au                            49 dx2-y2 
 label:         295 Au                            50 s      
 label:         296 Au                            50 dxy    
 label:         297 Au                            50 dyz    
 label:         298 Au                            50 dz2    
 label:         299 Au                            50 dxz    
 label:         300 Au                            50 dx2-y2 
 label:         301 Au                            51 s      
 label:         302 Au                            51 dxy    
 label:         303 Au                            51 dyz    
 label:         304 Au                            51 dz2    
 label:         305 Au                            51 dxz    
 label:         306 Au                            51 dx2-y2 
 label:         307 Au                            52 s      
 label:         308 Au                            52 dxy    
 label:         309 Au                            52 dyz    
 label:         310 Au                            52 dz2    
 label:         311 Au                            52 dxz    
 label:         312 Au                            52 dx2-y2 
 label:         313 Au                            53 s      
 label:         314 Au                            53 dxy    
 label:         315 Au                            53 dyz    
 label:         316 Au                            53 dz2    
 label:         317 Au                            53 dxz    
 label:         318 Au                            53 dx2-y2 
 label:         319 Au                            54 s      
 label:         320 Au                            54 dxy    
 label:         321 Au                            54 dyz    
 label:         322 Au                            54 dz2    
 label:         323 Au                            54 dxz    
 label:         324 Au                            54 dx2-y2 
 label:         325 Au                            55 s      
 label:         326 Au                            55 dxy    
 label:         327 Au                            55 dyz    
 label:         328 Au                            55 dz2    
 label:         329 Au                            55 dxz    
 label:         330 Au                            55 dx2-y2 
 label:         331 Au                            56 s      
 label:         332 Au                            56 dxy    
 label:         333 Au                            56 dyz    
 label:         334 Au                            56 dz2    
 label:         335 Au                            56 dxz    
 label:         336 Au                            56 dx2-y2 
 label:         337 S                             57 s      
 label:         338 S                             57 s      
 label:         339 S                             57 py     
 label:         340 S                             57 pz     
 label:         341 S                             57 px     
 label:         342 S                             57 py     
 label:         343 S                             57 pz     
 label:         344 S                             57 px     
 label:         345 S                             57 Pdxy   
 label:         346 S                             57 Pdyz   
 label:         347 S                             57 Pdz2   
 label:         348 S                             57 Pdxz   
 label:         349 S                             57 Pdx2-y2
 label:         350 C                             58 s      
 label:         351 C                             58 s      
 label:         352 C                             58 py     
 label:         353 C                             58 pz     
 label:         354 C                             58 px     
 label:         355 C                             58 py     
 label:         356 C                             58 pz     
 label:         357 C                             58 px     
 label:         358 C                             58 Pdxy   
 label:         359 C                             58 Pdyz   
 label:         360 C                             58 Pdz2   
 label:         361 C                             58 Pdxz   
 label:         362 C                             58 Pdx2-y2
 label:         363 H                             59 s      
 label:         364 H                             59 s      
 label:         365 H                             59 Ppy    
 label:         366 H                             59 Ppz    
 label:         367 H                             59 Ppx    
 label:         368 H                             60 s      
 label:         369 H                             60 s      
 label:         370 H                             60 Ppy    
 label:         371 H                             60 Ppz    
 label:         372 H                             60 Ppx    
 label:         373 C                             61 s      
 label:         374 C                             61 s      
 label:         375 C                             61 py     
 label:         376 C                             61 pz     
 label:         377 C                             61 px     
 label:         378 C                             61 py     
 label:         379 C                             61 pz     
 label:         380 C                             61 px     
 label:         381 C                             61 Pdxy   
 label:         382 C                             61 Pdyz   
 label:         383 C                             61 Pdz2   
 label:         384 C                             61 Pdxz   
 label:         385 C                             61 Pdx2-y2
 label:         386 C                             62 s      
 label:         387 C                             62 s      
 label:         388 C                             62 py     
 label:         389 C                             62 pz     
 label:         390 C                             62 px     
 label:         391 C                             62 py     
 label:         392 C                             62 pz     
 label:         393 C                             62 px     
 label:         394 C                             62 Pdxy   
 label:         395 C                             62 Pdyz   
 label:         396 C                             62 Pdz2   
 label:         397 C                             62 Pdxz   
 label:         398 C                             62 Pdx2-y2
 label:         399 C                             63 s      
 label:         400 C                             63 s      
 label:         401 C                             63 py     
 label:         402 C                             63 pz     
 label:         403 C                             63 px     
 label:         404 C                             63 py     
 label:         405 C                             63 pz     
 label:         406 C                             63 px     
 label:         407 C                             63 Pdxy   
 label:         408 C                             63 Pdyz   
 label:         409 C                             63 Pdz2   
 label:         410 C                             63 Pdxz   
 label:         411 C                             63 Pdx2-y2
 label:         412 C                             64 s      
 label:         413 C                             64 s      
 label:         414 C                             64 py     
 label:         415 C                             64 pz     
 label:         416 C                             64 px     
 label:         417 C                             64 py     
 label:         418 C                             64 pz     
 label:         419 C                             64 px     
 label:         420 C                             64 Pdxy   
 label:         421 C                             64 Pdyz   
 label:         422 C                             64 Pdz2   
 label:         423 C                             64 Pdxz   
 label:         424 C                             64 Pdx2-y2
 label:         425 H                             65 s      
 label:         426 H                             65 s      
 label:         427 H                             65 Ppy    
 label:         428 H                             65 Ppz    
 label:         429 H                             65 Ppx    
 label:         430 H                             66 s      
 label:         431 H                             66 s      
 label:         432 H                             66 Ppy    
 label:         433 H                             66 Ppz    
 label:         434 H                             66 Ppx    
 label:         435 C                             67 s      
 label:         436 C                             67 s      
 label:         437 C                             67 py     
 label:         438 C                             67 pz     
 label:         439 C                             67 px     
 label:         440 C                             67 py     
 label:         441 C                             67 pz     
 label:         442 C                             67 px     
 label:         443 C                             67 Pdxy   
 label:         444 C                             67 Pdyz   
 label:         445 C                             67 Pdz2   
 label:         446 C                             67 Pdxz   
 label:         447 C                             67 Pdx2-y2
 label:         448 S                             68 s      
 label:         449 S                             68 s      
 label:         450 S                             68 py     
 label:         451 S                             68 pz     
 label:         452 S                             68 px     
 label:         453 S                             68 py     
 label:         454 S                             68 pz     
 label:         455 S                             68 px     
 label:         456 S                             68 Pdxy   
 label:         457 S                             68 Pdyz   
 label:         458 S                             68 Pdz2   
 label:         459 S                             68 Pdxz   
 label:         460 S                             68 Pdx2-y2
 label:         461 Au                            69 s      
 label:         462 Au                            69 dxy    
 label:         463 Au                            69 dyz    
 label:         464 Au                            69 dz2    
 label:         465 Au                            69 dxz    
 label:         466 Au                            69 dx2-y2 
 label:         467 Au                            70 s      
 label:         468 Au                            70 dxy    
 label:         469 Au                            70 dyz    
 label:         470 Au                            70 dz2    
 label:         471 Au                            70 dxz    
 label:         472 Au                            70 dx2-y2 
 label:         473 Au                            71 s      
 label:         474 Au                            71 dxy    
 label:         475 Au                            71 dyz    
 label:         476 Au                            71 dz2    
 label:         477 Au                            71 dxz    
 label:         478 Au                            71 dx2-y2 
 label:         479 Au                            72 s      
 label:         480 Au                            72 dxy    
 label:         481 Au                            72 dyz    
 label:         482 Au                            72 dz2    
 label:         483 Au                            72 dxz    
 label:         484 Au                            72 dx2-y2 
 label:         485 Au                            73 s      
 label:         486 Au                            73 dxy    
 label:         487 Au                            73 dyz    
 label:         488 Au                            73 dz2    
 label:         489 Au                            73 dxz    
 label:         490 Au                            73 dx2-y2 
 label:         491 Au                            74 s      
 label:         492 Au                            74 dxy    
 label:         493 Au                            74 dyz    
 label:         494 Au                            74 dz2    
 label:         495 Au                            74 dxz    
 label:         496 Au                            74 dx2-y2 
 label:         497 Au                            75 s      
 label:         498 Au                            75 dxy    
 label:         499 Au                            75 dyz    
 label:         500 Au                            75 dz2    
 label:         501 Au                            75 dxz    
 label:         502 Au                            75 dx2-y2 
 label:         503 Au                            76 s      
 label:         504 Au                            76 dxy    
 label:         505 Au                            76 dyz    
 label:         506 Au                            76 dz2    
 label:         507 Au                            76 dxz    
 label:         508 Au                            76 dx2-y2 
 label:         509 Au                            77 s      
 label:         510 Au                            77 dxy    
 label:         511 Au                            77 dyz    
 label:         512 Au                            77 dz2    
 label:         513 Au                            77 dxz    
 label:         514 Au                            77 dx2-y2 
 label:         515 Au                            78 s      
 label:         516 Au                            78 dxy    
 label:         517 Au                            78 dyz    
 label:         518 Au                            78 dz2    
 label:         519 Au                            78 dxz    
 label:         520 Au                            78 dx2-y2 
 label:         521 Au                            79 s      
 label:         522 Au                            79 dxy    
 label:         523 Au                            79 dyz    
 label:         524 Au                            79 dz2    
 label:         525 Au                            79 dxz    
 label:         526 Au                            79 dx2-y2 
 label:         527 Au                            80 s      
 label:         528 Au                            80 dxy    
 label:         529 Au                            80 dyz    
 label:         530 Au                            80 dz2    
 label:         531 Au                            80 dxz    
 label:         532 Au                            80 dx2-y2 
 label:         533 Au                            81 s      
 label:         534 Au                            81 dxy    
 label:         535 Au                            81 dyz    
 label:         536 Au                            81 dz2    
 label:         537 Au                            81 dxz    
 label:         538 Au                            81 dx2-y2 
 label:         539 Au                            82 s      
 label:         540 Au                            82 dxy    
 label:         541 Au                            82 dyz    
 label:         542 Au                            82 dz2    
 label:         543 Au                            82 dxz    
 label:         544 Au                            82 dx2-y2 
 label:         545 Au                            83 s      
 label:         546 Au                            83 dxy    
 label:         547 Au                            83 dyz    
 label:         548 Au                            83 dz2    
 label:         549 Au                            83 dxz    
 label:         550 Au                            83 dx2-y2 
 label:         551 Au                            84 s      
 label:         552 Au                            84 dxy    
 label:         553 Au                            84 dyz    
 label:         554 Au                            84 dz2    
 label:         555 Au                            84 dxz    
 label:         556 Au                            84 dx2-y2 
 label:         557 Au                            85 s      
 label:         558 Au                            85 dxy    
 label:         559 Au                            85 dyz    
 label:         560 Au                            85 dz2    
 label:         561 Au                            85 dxz    
 label:         562 Au                            85 dx2-y2 
 label:         563 Au                            86 s      
 label:         564 Au                            86 dxy    
 label:         565 Au                            86 dyz    
 label:         566 Au                            86 dz2    
 label:         567 Au                            86 dxz    
 label:         568 Au                            86 dx2-y2 
 label:         569 Au                            87 s      
 label:         570 Au                            87 dxy    
 label:         571 Au                            87 dyz    
 label:         572 Au                            87 dz2    
 label:         573 Au                            87 dxz    
 label:         574 Au                            87 dx2-y2 
 label:         575 Au                            88 s      
 label:         576 Au                            88 dxy    
 label:         577 Au                            88 dyz    
 label:         578 Au                            88 dz2    
 label:         579 Au                            88 dxz    
 label:         580 Au                            88 dx2-y2 
 label:         581 Au                            89 s      
 label:         582 Au                            89 dxy    
 label:         583 Au                            89 dyz    
 label:         584 Au                            89 dz2    
 label:         585 Au                            89 dxz    
 label:         586 Au                            89 dx2-y2 
 label:         587 Au                            90 s      
 label:         588 Au                            90 dxy    
 label:         589 Au                            90 dyz    
 label:         590 Au                            90 dz2    
 label:         591 Au                            90 dxz    
 label:         592 Au                            90 dx2-y2 
 label:         593 Au                            91 s      
 label:         594 Au                            91 dxy    
 label:         595 Au                            91 dyz    
 label:         596 Au                            91 dz2    
 label:         597 Au                            91 dxz    
 label:         598 Au                            91 dx2-y2 
 label:         599 Au                            92 s      
 label:         600 Au                            92 dxy    
 label:         601 Au                            92 dyz    
 label:         602 Au                            92 dz2    
 label:         603 Au                            92 dxz    
 label:         604 Au                            92 dx2-y2 
 label:         605 Au                            93 s      
 label:         606 Au                            93 dxy    
 label:         607 Au                            93 dyz    
 label:         608 Au                            93 dz2    
 label:         609 Au                            93 dxz    
 label:         610 Au                            93 dx2-y2 
 label:         611 Au                            94 s      
 label:         612 Au                            94 dxy    
 label:         613 Au                            94 dyz    
 label:         614 Au                            94 dz2    
 label:         615 Au                            94 dxz    
 label:         616 Au                            94 dx2-y2 
 label:         617 Au                            95 s      
 label:         618 Au                            95 dxy    
 label:         619 Au                            95 dyz    
 label:         620 Au                            95 dz2    
 label:         621 Au                            95 dxz    
 label:         622 Au                            95 dx2-y2 
 label:         623 Au                            96 s      
 label:         624 Au                            96 dxy    
 label:         625 Au                            96 dyz    
 label:         626 Au                            96 dz2    
 label:         627 Au                            96 dxz    
 label:         628 Au                            96 dx2-y2 
 label:         629 Au                            97 s      
 label:         630 Au                            97 dxy    
 label:         631 Au                            97 dyz    
 label:         632 Au                            97 dz2    
 label:         633 Au                            97 dxz    
 label:         634 Au                            97 dx2-y2 
 label:         635 Au                            98 s      
 label:         636 Au                            98 dxy    
 label:         637 Au                            98 dyz    
 label:         638 Au                            98 dz2    
 label:         639 Au                            98 dxz    
 label:         640 Au                            98 dx2-y2 
 label:         641 Au                            99 s      
 label:         642 Au                            99 dxy    
 label:         643 Au                            99 dyz    
 label:         644 Au                            99 dz2    
 label:         645 Au                            99 dxz    
 label:         646 Au                            99 dx2-y2 
 label:         647 Au                           100 s      
 label:         648 Au                           100 dxy    
 label:         649 Au                           100 dyz    
 label:         650 Au                           100 dz2    
 label:         651 Au                           100 dxz    
 label:         652 Au                           100 dx2-y2 
 label:         653 Au                           101 s      
 label:         654 Au                           101 dxy    
 label:         655 Au                           101 dyz    
 label:         656 Au                           101 dz2    
 label:         657 Au                           101 dxz    
 label:         658 Au                           101 dx2-y2 
 label:         659 Au                           102 s      
 label:         660 Au                           102 dxy    
 label:         661 Au                           102 dyz    
 label:         662 Au                           102 dz2    
 label:         663 Au                           102 dxz    
 label:         664 Au                           102 dx2-y2 
 label:         665 Au                           103 s      
 label:         666 Au                           103 dxy    
 label:         667 Au                           103 dyz    
 label:         668 Au                           103 dz2    
 label:         669 Au                           103 dxz    
 label:         670 Au                           103 dx2-y2 
 label:         671 Au                           104 s      
 label:         672 Au                           104 dxy    
 label:         673 Au                           104 dyz    
 label:         674 Au                           104 dz2    
 label:         675 Au                           104 dxz    
 label:         676 Au                           104 dx2-y2 
 label:         677 Au                           105 s      
 label:         678 Au                           105 dxy    
 label:         679 Au                           105 dyz    
 label:         680 Au                           105 dz2    
 label:         681 Au                           105 dxz    
 label:         682 Au                           105 dx2-y2 
 label:         683 Au                           106 s      
 label:         684 Au                           106 dxy    
 label:         685 Au                           106 dyz    
 label:         686 Au                           106 dz2    
 label:         687 Au                           106 dxz    
 label:         688 Au                           106 dx2-y2 
 label:         689 Au                           107 s      
 label:         690 Au                           107 dxy    
 label:         691 Au                           107 dyz    
 label:         692 Au                           107 dz2    
 label:         693 Au                           107 dxz    
 label:         694 Au                           107 dx2-y2 
 label:         695 Au                           108 s      
 label:         696 Au                           108 dxy    
 label:         697 Au                           108 dyz    
 label:         698 Au                           108 dz2    
 label:         699 Au                           108 dxz    
 label:         700 Au                           108 dx2-y2 
 label:         701 Au                           109 s      
 label:         702 Au                           109 dxy    
 label:         703 Au                           109 dyz    
 label:         704 Au                           109 dz2    
 label:         705 Au                           109 dxz    
 label:         706 Au                           109 dx2-y2 
 label:         707 Au                           110 s      
 label:         708 Au                           110 dxy    
 label:         709 Au                           110 dyz    
 label:         710 Au                           110 dz2    
 label:         711 Au                           110 dxz    
 label:         712 Au                           110 dx2-y2 
 label:         713 Au                           111 s      
 label:         714 Au                           111 dxy    
 label:         715 Au                           111 dyz    
 label:         716 Au                           111 dz2    
 label:         717 Au                           111 dxz    
 label:         718 Au                           111 dx2-y2 
 label:         719 Au                           112 s      
 label:         720 Au                           112 dxy    
 label:         721 Au                           112 dyz    
 label:         722 Au                           112 dz2    
 label:         723 Au                           112 dxz    
 label:         724 Au                           112 dx2-y2 
 label:         725 Au                           113 s      
 label:         726 Au                           113 dxy    
 label:         727 Au                           113 dyz    
 label:         728 Au                           113 dz2    
 label:         729 Au                           113 dxz    
 label:         730 Au                           113 dx2-y2 
[...]

superc: Internal auxiliary supercell:     3 x     3 x     1  =       9
superc: Number of atoms, orbitals, and projectors:   1044  6732 16452

read_ldau The LDA+U method used is from Czyzky PRB 49 14211
 NSCOBlocks=           0

iodm: Reading Density Matrix from files

transport.DM                     

InitMesh: MESH =    72 x    72 x   300 =     1555200
InitMesh: Mesh cutoff (required, used) =   200.000   206.182 Ry
 
* Maximum dynamic memory allocated =    36 MB
siesta: reading saved Hamiltonian
siesta: saved Hamiltonian not found

siesta: Program's energy decomposition (eV):
siesta: Eions   =    128342.314861
siesta: Ena     =      7904.096604
siesta: Ekin    =     70711.727887
siesta: Enl     =    -26599.005228
siesta: DEna    =        79.774192
siesta: DUscf   =         4.300329
siesta: DUext   =         0.000000
siesta: Exc     =    -43852.146101
siesta: eta*DQ  =         0.000000
siesta: Emadel  =         0.000000
siesta: Eharris =   -120094.514898
siesta: Eso     =         0.000000
siesta: Etot    =   -120093.567178
siesta: FreeEng =   -120093.567178

siesta: iscf   Eharris(eV)      E_KS(eV)   FreeEng(eV)     dDmax   Ef(eV)
siesta:    1  -120094.5149  -120093.5672  -120093.5672   0.07472   0.0000
timer: Routine,Calls,Time,% = IterSCF        1     636.218  71.49
siesta:    2  -120094.6071  -120093.6626  -120093.6626   0.00515   0.0000
siesta:    3  -120094.9906  -120094.5939  -120094.5939   0.03334   0.0000
siesta:    4  -120094.3628  -120095.0479  -120095.0479   0.08657   0.0000
siesta:    5  -120094.3715  -120094.3096  -120094.3096   0.01987   0.0000
siesta:    6  -120094.2538  -120094.3876  -120094.3876   0.03211   0.0000
siesta:    7  -120093.9433  -120094.2525  -120094.2525   0.01373   0.0000
siesta:    8  -120093.8281  -120093.9305  -120093.9305   0.00650   0.0000
siesta:    9  -120093.8381  -120093.8242  -120093.8242   0.00397   0.0000
siesta:   10  -120093.7565  -120093.8414  -120093.8414   0.00317   0.0000
siesta:   11  -120093.7459  -120093.7531  -120093.7531   0.00140   0.0000
siesta:   12  -120093.7556  -120093.7464  -120093.7464   0.00070   0.0000
siesta:   13  -120093.7492  -120093.7557  -120093.7557   0.00087   0.0000
siesta:   14  -120093.7565  -120093.7490  -120093.7490   0.00044   0.0000
siesta:   15  -120093.7620  -120093.7567  -120093.7567   0.00029   0.0000
siesta:   16  -120093.7669  -120093.7621  -120093.7621   0.00018   0.0000
siesta:   17  -120093.7729  -120093.7670  -120093.7670   0.00013   0.0000
siesta:   18  -120093.7702  -120093.7729  -120093.7729   0.00014   0.0000
siesta:   19  -120093.7733  -120093.7701  -120093.7701   0.00006   0.0000
 Calculating transmission coefficient

siesta: E_KS(eV) =          -120093.7734

siesta: E_KS - E_eggbox =   -120093.7734

siesta: Atomic forces (eV/Ang):
     1    0.000027   -0.000028    0.000656
     2    0.000007    0.000054    0.000655
     3   -0.000031    0.000003    0.000566
     4   -0.000052   -0.007447    0.000653
     5    0.000011   -0.000025    0.000564
     6    0.000005    0.000039    0.000562
     7   -0.007403    0.000001    0.000564
     8   -0.005215   -0.005272    0.000649
     9    0.000025    0.000003   -0.001214
    10    0.000013    0.000003   -0.001736
    11   -0.000150   -0.000116   -0.001567
    12   -0.000147    0.000147   -0.001571
    13    0.000013    0.000003   -0.001513
    14   -0.000003    0.000004   -0.001269
    15    0.000169   -0.000117   -0.001569
    16    0.000171    0.000142   -0.001574
    17    0.000058    0.009693    0.795824
    18    0.000062   -0.009748    0.795368
    19   -0.011969   -0.000035    0.757821
    20    0.009506    0.000049    0.795969
    21   -0.000020   -0.012618    0.757007
    22   -0.000012    0.012755    0.756686
    23    0.012070   -0.000031    0.757250
    24   -0.009564    0.000039    0.795772
    25   -0.000729   -0.000904   -0.521609
    26    0.000069   -0.000279   -0.357565
    27   -0.059715   -0.057082   -0.414289
    28   -0.058522    0.057996   -0.413724
    29    0.000321    0.000434   -0.304310
    30   -0.001106   -0.001064   -0.535421
    31    0.060452   -0.055986   -0.413807
    32    0.059272    0.056892   -0.413227
    33    0.000216   -0.054044    0.372630
    34    0.000238    0.055768    0.373013
    35    0.027652   -0.000002    0.526345
    36   -0.053706    0.000152    0.372841
    37    0.000051    0.031099    0.524095
    38    0.000077   -0.032874    0.523795
    39   -0.029131    0.000010    0.526655
    40    0.054812    0.000148    0.373191
    41   -0.004681    0.000132    0.042759
    42    0.000362    0.000818   -0.852016
    43    0.091640    0.102323   -0.828127
    44    0.091492   -0.100730   -0.830467
    45   -0.001748   -0.001891   -1.464953
    46    0.000195   -0.003447    0.000466
    47   -0.090655    0.102414   -0.828993
    48   -0.090456   -0.100812   -0.831371
    49    0.001270    0.065485   -0.980053
    50    0.001309   -0.065461   -0.974254
    51   -0.696257   -0.001303    0.052423
    52    0.031158    0.000343   -1.058630
    53   -0.004119   -0.737574   -0.162226
    54   -0.004095    0.737830   -0.151917
    55    0.704717   -0.001248    0.064194
    56   -0.029533    0.000361   -1.058531
    57    0.035666    0.058983   11.734651
    58   -0.410446    0.244286    3.700695
    59    5.775554   -0.208675    2.708438
    60   -5.810941   -0.210271    2.710825
    61    8.292027   -0.242459    4.707476
    62   -8.100188   -0.239407    4.847793
    63    8.082923    0.235792   -4.808267
    64   -8.285130    0.239678   -4.658032
    65    5.824090    0.212351   -2.741242
    66   -5.791559    0.210368   -2.720868
    67    0.536224   -0.208320   -3.745783
    68   -0.181187   -0.115294  -11.735678
    69    0.001267    0.067112    0.981038
    70    0.001280   -0.065344    0.986649
    71   -0.686684   -0.004017   -0.055711
    72    0.031395    0.001149    1.066118
    73   -0.003784   -0.728445    0.160162
    74   -0.003749    0.752651    0.162945
    75    0.720583   -0.004000   -0.051323
    76   -0.030538    0.001178    1.065797
    77    0.000387    0.000000   -0.028883
    78   -0.000464   -0.000808    0.818336
    79    0.085448    0.097118    0.803570
    80    0.086036   -0.097814    0.801856
    81    0.001946    0.001156    1.401509
    82   -0.000259   -0.000541    0.009498
    83   -0.085900    0.098013    0.802377
    84   -0.086485   -0.098707    0.800643
    85   -0.000906   -0.081056   -0.446393
    86   -0.000917    0.080749   -0.447111
    87   -0.141404   -0.000462   -0.530907
    88   -0.071227   -0.000817   -0.452817
    89   -0.000427   -0.137972   -0.514325
    90   -0.000427    0.140389   -0.514691
    91    0.143946   -0.000468   -0.530198
    92    0.070501   -0.000840   -0.453667
    93   -0.000122    0.000087    0.491369
    94    0.000207    0.000135    0.512492
    95    0.005959    0.005991    0.474156
    96    0.006069   -0.005990    0.473930
    97    0.000069    0.000054    0.378568
    98    0.000077   -0.000113    0.491313
    99   -0.005954    0.006174    0.473827
   100   -0.006051   -0.006181    0.473615
   101    0.000029   -0.000353   -0.773136
   102    0.000038    0.000390   -0.773145
   103   -0.000098   -0.000001   -0.773237
   104   -0.000346    0.000002   -0.773235
   105    0.000005   -0.000102   -0.773194
   106    0.000016    0.000144   -0.773201
   107    0.000125    0.000000   -0.773236
   108    0.000346   -0.000002   -0.773244
   109    0.000025   -0.000002    0.002298
   110    0.000007    0.000023    0.002256
   111   -0.000022   -0.000004    0.002288
   112   -0.000014    0.000031    0.002292
   113    0.000006   -0.000003    0.002296
   114   -0.000006    0.000026    0.002286
   115    0.000046    0.000001    0.002285
   116    0.000057    0.000026    0.002289
----------------------------------------
 Tot   -0.014456   -0.019404   -0.002120
----------------------------------------
 Max   11.735678
 Res    1.578760    sqrt( Sum f_i^2 / 3N )
----------------------------------------
 Max   11.735678    constrained
 
* Maximum dynamic memory allocated =    48 MB

coxmol: Writing XMOL coordinates into file transport.xyz           
 siesta: ERROR: PDOS implemented only with diagon

siesta: Program's energy decomposition (eV):
siesta:-Eions   = -128342.314861
siesta: Ena     =    7904.096604
siesta: Ekin    =   70701.729700
siesta: Enl     =  -26593.083062
siesta: DEna    =      82.394002
siesta: DUscf   =       4.346890
siesta: DUext   =       0.000000
siesta: Exc     =  -43850.942673
siesta: eta*DQ  =       0.000000
siesta: Emadel  =       0.000000
siesta: Ekinion =       0.000000
siesta: Eharris = -120093.773320
siesta: Eso     =       0.000000
siesta: Etot    = -120093.773400
siesta: FreeEng = -120093.773400

siesta: Final energy (eV):
siesta:       Kinetic =   70701.729700
siesta:       Hartree =  159480.181001
siesta:    Ext. field =       0.000000
siesta:   Exch.-corr. =  -43850.942673
siesta:  Ion-electron = -374117.715423
siesta:       Ion-ion =   67692.973994
siesta:       Ekinion =       0.000000
siesta:         Total = -120093.773400

siesta: Atomic forces (eV/Ang):
siesta:    1    0.000027   -0.000028    0.000656
siesta:    2    0.000007    0.000054    0.000655
siesta:    3   -0.000031    0.000003    0.000566
siesta:    4   -0.000052   -0.007447    0.000653
siesta:    5    0.000011   -0.000025    0.000564
siesta:    6    0.000005    0.000039    0.000562
siesta:    7   -0.007403    0.000001    0.000564
siesta:    8   -0.005215   -0.005272    0.000649
siesta:    9    0.000025    0.000003   -0.001214
siesta:   10    0.000013    0.000003   -0.001736
siesta:   11   -0.000150   -0.000116   -0.001567
siesta:   12   -0.000147    0.000147   -0.001571
siesta:   13    0.000013    0.000003   -0.001513
siesta:   14   -0.000003    0.000004   -0.001269
siesta:   15    0.000169   -0.000117   -0.001569
siesta:   16    0.000171    0.000142   -0.001574
siesta:   17    0.000058    0.009693    0.795824
siesta:   18    0.000062   -0.009748    0.795368
siesta:   19   -0.011969   -0.000035    0.757821
siesta:   20    0.009506    0.000049    0.795969
siesta:   21   -0.000020   -0.012618    0.757007
siesta:   22   -0.000012    0.012755    0.756686
siesta:   23    0.012070   -0.000031    0.757250
siesta:   24   -0.009564    0.000039    0.795772
siesta:   25   -0.000729   -0.000904   -0.521609
siesta:   26    0.000069   -0.000279   -0.357565
siesta:   27   -0.059715   -0.057082   -0.414289
siesta:   28   -0.058522    0.057996   -0.413724
siesta:   29    0.000321    0.000434   -0.304310
siesta:   30   -0.001106   -0.001064   -0.535421
siesta:   31    0.060452   -0.055986   -0.413807
siesta:   32    0.059272    0.056892   -0.413227
siesta:   33    0.000216   -0.054044    0.372630
siesta:   34    0.000238    0.055768    0.373013
siesta:   35    0.027652   -0.000002    0.526345
siesta:   36   -0.053706    0.000152    0.372841
siesta:   37    0.000051    0.031099    0.524095
siesta:   38    0.000077   -0.032874    0.523795
siesta:   39   -0.029131    0.000010    0.526655
siesta:   40    0.054812    0.000148    0.373191
siesta:   41   -0.004681    0.000132    0.042759
siesta:   42    0.000362    0.000818   -0.852016
siesta:   43    0.091640    0.102323   -0.828127
siesta:   44    0.091492   -0.100730   -0.830467
siesta:   45   -0.001748   -0.001891   -1.464953
siesta:   46    0.000195   -0.003447    0.000466
siesta:   47   -0.090655    0.102414   -0.828993
siesta:   48   -0.090456   -0.100812   -0.831371
siesta:   49    0.001270    0.065485   -0.980053
siesta:   50    0.001309   -0.065461   -0.974254
siesta:   51   -0.696257   -0.001303    0.052423
siesta:   52    0.031158    0.000343   -1.058630
siesta:   53   -0.004119   -0.737574   -0.162226
siesta:   54   -0.004095    0.737830   -0.151917
siesta:   55    0.704717   -0.001248    0.064194
siesta:   56   -0.029533    0.000361   -1.058531
siesta:   57    0.035666    0.058983   11.734651
siesta:   58   -0.410446    0.244286    3.700695
siesta:   59    5.775554   -0.208675    2.708438
siesta:   60   -5.810941   -0.210271    2.710825
siesta:   61    8.292027   -0.242459    4.707476
siesta:   62   -8.100188   -0.239407    4.847793
siesta:   63    8.082923    0.235792   -4.808267
siesta:   64   -8.285130    0.239678   -4.658032
siesta:   65    5.824090    0.212351   -2.741242
siesta:   66   -5.791559    0.210368   -2.720868
siesta:   67    0.536224   -0.208320   -3.745783
siesta:   68   -0.181187   -0.115294  -11.735678
siesta:   69    0.001267    0.067112    0.981038
siesta:   70    0.001280   -0.065344    0.986649
siesta:   71   -0.686684   -0.004017   -0.055711
siesta:   72    0.031395    0.001149    1.066118
siesta:   73   -0.003784   -0.728445    0.160162
siesta:   74   -0.003749    0.752651    0.162945
siesta:   75    0.720583   -0.004000   -0.051323
siesta:   76   -0.030538    0.001178    1.065797
siesta:   77    0.000387    0.000000   -0.028883
siesta:   78   -0.000464   -0.000808    0.818336
siesta:   79    0.085448    0.097118    0.803570
siesta:   80    0.086036   -0.097814    0.801856
siesta:   81    0.001946    0.001156    1.401509
siesta:   82   -0.000259   -0.000541    0.009498
siesta:   83   -0.085900    0.098013    0.802377
siesta:   84   -0.086485   -0.098707    0.800643
siesta:   85   -0.000906   -0.081056   -0.446393
siesta:   86   -0.000917    0.080749   -0.447111
siesta:   87   -0.141404   -0.000462   -0.530907
siesta:   88   -0.071227   -0.000817   -0.452817
siesta:   89   -0.000427   -0.137972   -0.514325
siesta:   90   -0.000427    0.140389   -0.514691
siesta:   91    0.143946   -0.000468   -0.530198
siesta:   92    0.070501   -0.000840   -0.453667
siesta:   93   -0.000122    0.000087    0.491369
siesta:   94    0.000207    0.000135    0.512492
siesta:   95    0.005959    0.005991    0.474156
siesta:   96    0.006069   -0.005990    0.473930
siesta:   97    0.000069    0.000054    0.378568
siesta:   98    0.000077   -0.000113    0.491313
siesta:   99   -0.005954    0.006174    0.473827
siesta:  100   -0.006051   -0.006181    0.473615
siesta:  101    0.000029   -0.000353   -0.773136
siesta:  102    0.000038    0.000390   -0.773145
siesta:  103   -0.000098   -0.000001   -0.773237
siesta:  104   -0.000346    0.000002   -0.773235
siesta:  105    0.000005   -0.000102   -0.773194
siesta:  106    0.000016    0.000144   -0.773201
siesta:  107    0.000125    0.000000   -0.773236
siesta:  108    0.000346   -0.000002   -0.773244
siesta:  109    0.000025   -0.000002    0.002298
siesta:  110    0.000007    0.000023    0.002256
siesta:  111   -0.000022   -0.000004    0.002288
siesta:  112   -0.000014    0.000031    0.002292
siesta:  113    0.000006   -0.000003    0.002296
siesta:  114   -0.000006    0.000026    0.002286
siesta:  115    0.000046    0.000001    0.002285
siesta:  116    0.000057    0.000026    0.002289
siesta: ----------------------------------------
siesta:  Tot   -0.014456   -0.019404   -0.002120

siesta: Stress tensor (static) (eV/Ang**3):
siesta:     0.144302    0.000001   -0.000223
siesta:     0.000001    0.106484   -0.000260
siesta:    -0.000256   -0.000259    0.154483

siesta: Cell volume =       2357.480286 Ang**3

siesta: Pressure (static):
siesta:                Solid            Molecule  Units
siesta:          -0.00147130         -0.00112455  Ry/Bohr**3
siesta:          -0.13508933         -0.10325226  eV/Ang**3
siesta:        -216.43930841       -165.43014357  kBar

siesta: Total spin polarization (Qup-Qdown) =    0.000000
siesta: Spin vector =    0.000000    0.000000    0.000000
siesta: No SpinPolK block detected...

siesta: Electric dipole (a.u.)  =    0.000000    0.000000    1.303807
siesta: Electric dipole (Debye) =    0.000000    0.000000    3.313948
 
* Maximum dynamic memory allocated : Node    0 =    48 MB
* Maximum dynamic memory allocated : Node    1 =    34 MB
* Maximum dynamic memory allocated : Node    2 =    33 MB
* Maximum dynamic memory allocated : Node    3 =    30 MB
* Maximum dynamic memory allocated : Node    4 =    30 MB
* Maximum dynamic memory allocated : Node    5 =    33 MB
* Maximum dynamic memory allocated : Node    6 =    33 MB
* Maximum dynamic memory allocated : Node    7 =    33 MB
* Maximum dynamic memory allocated : Node    8 =    32 MB
* Maximum dynamic memory allocated : Node    9 =    32 MB
* Maximum dynamic memory allocated : Node   10 =    32 MB
* Maximum dynamic memory allocated : Node   11 =    30 MB
* Maximum dynamic memory allocated : Node   12 =    30 MB
* Maximum dynamic memory allocated : Node   13 =    31 MB
* Maximum dynamic memory allocated : Node   14 =    31 MB
* Maximum dynamic memory allocated : Node   15 =    31 MB
* Maximum dynamic memory allocated : Node   16 =    32 MB
* Maximum dynamic memory allocated : Node   17 =    32 MB
* Maximum dynamic memory allocated : Node   18 =    31 MB
* Maximum dynamic memory allocated : Node   19 =    26 MB
* Maximum dynamic memory allocated : Node   20 =    26 MB
* Maximum dynamic memory allocated : Node   21 =    31 MB
* Maximum dynamic memory allocated : Node   22 =    31 MB
* Maximum dynamic memory allocated : Node   23 =    31 MB
* Maximum dynamic memory allocated : Node   24 =    32 MB
* Maximum dynamic memory allocated : Node   25 =    32 MB
* Maximum dynamic memory allocated : Node   26 =    31 MB
* Maximum dynamic memory allocated : Node   27 =    23 MB
* Maximum dynamic memory allocated : Node   28 =    24 MB
* Maximum dynamic memory allocated : Node   29 =    31 MB
* Maximum dynamic memory allocated : Node   30 =    31 MB
* Maximum dynamic memory allocated : Node   31 =    31 MB
* Maximum dynamic memory allocated : Node   32 =    32 MB
* Maximum dynamic memory allocated : Node   33 =    32 MB
* Maximum dynamic memory allocated : Node   34 =    31 MB
* Maximum dynamic memory allocated : Node   35 =    24 MB
* Maximum dynamic memory allocated : Node   36 =    24 MB
* Maximum dynamic memory allocated : Node   37 =    31 MB
* Maximum dynamic memory allocated : Node   38 =    31 MB
* Maximum dynamic memory allocated : Node   39 =    31 MB
* Maximum memory occured during matrixMtoO                    

timer: CPU execution times:
timer:  Routine       Calls   Time/call    Tot.time        %
timer:  siesta            1    5176.993    5176.993   100.00
timer:  Setup             1     215.957     215.957     4.17
timer:  bands             1       0.016       0.016     0.00
timer:  writewave         1       0.043       0.043     0.00
timer:  KSV_init          1       0.013       0.013     0.00
timer:  IterMD            1    4922.191    4922.191    95.08
timer:  hsparse           2       6.338      12.676     0.24
timer:  overfsm           2       6.741      13.482     0.26
timer:  IterSCF          20     244.153    4883.066    94.32
timer:  kinefsm           2       6.438      12.876     0.25
timer:  nlefsm            2     127.388     254.776     4.92
timer:  DHSCF            21      48.478    1018.040    19.66
timer:  DHSCF1            1       3.449       3.449     0.07
timer:  DHSCF2            1      72.919      72.919     1.41
timer:  REORD           258       0.006       1.609     0.03
timer:  POISON           22       0.643      14.154     0.27
timer:  DHSCF3           21      42.823     899.280    17.37
timer:  rhoofd           21      18.001     378.013     7.30
timer:  CELLXC           21       0.249       5.225     0.10
timer:  vmat             20      16.949     338.978     6.55
timer:  emtrans          20     175.070    3501.407    67.63
timer:  NEGFK            80      37.477    2998.147    57.91
timer:  NEGFK_su         80       3.185     254.787     4.92
timer:  NEGFK_imag       76       6.801     516.865     9.98
timer:  NEGFK_col        76       0.394      29.968     0.58
timer:  DHSCF4            1      40.772      40.772     0.79
timer:  dfscf             1      31.992      31.992     0.62
timer:  TRANSM            4     543.789    2175.155    42.02
timer:  CURRENT           4       0.951       3.805     0.07
  
>> End of run:  21-FEB-2023  14:42:25
