ATOMS
H             0.00000000      0.00000000     -0.00998254            -0.70710678      0.00007317     -0.00000970
H             0.00000000      0.00000000      0.73998166            -0.70710678      0.00007317     -0.00000970
