ATOMS
H             0.00000000      0.00000000     -0.00998254            -0.00007174     -0.65944746      0.25520392
H             0.00000000      0.00000000      0.73998166            -0.00007174     -0.65944746      0.25520392
