ATOMS
H             0.00000000      0.00000000     -0.00998254             0.00000377      0.25828882      0.65824531
H             0.00000000      0.00000000      0.73998166             0.00000377      0.25828882      0.65824531
