ATOMS
H             0.00000000      0.00000000     -0.00998254            -0.70710678     -0.00000390      0.00000558
H             0.00000000      0.00000000      0.73998166            -0.70710678     -0.00000390      0.00000558
