ATOMS
H             0.00000000      0.00000000     -0.00998254            -0.00034975      0.70710669     -0.00002869
H             0.00000000      0.00000000      0.73998166             0.00034975     -0.70710669      0.00002869
