ATOMS
H             0.00000000      0.00000000     -0.00998254            -0.00000068     -0.23164354      0.66808777
H             0.00000000      0.00000000      0.73998166            -0.00000068     -0.23164354      0.66808777
