ATOMS
H             0.00000000      0.00000000     -0.00998254             0.70710678      0.00001207      0.00000490
H             0.00000000      0.00000000      0.73998166             0.70710678      0.00001207      0.00000490
