ATOMS
H             0.00000000      0.00000000     -0.00998254             0.00016595     -0.00002860     -0.70710676
H             0.00000000      0.00000000      0.73998166            -0.00016595      0.00002860      0.70710676
