 Calculating transmission coefficient
                                      BLAS
 DBCSR| Multrec recursion limit                                              512
 DBCSR| Multiplication stack size                                           1000
 DBCSR| Maximum elements for images                                    UNLIMITED
 DBCSR| Multiplicative factor virtual images                                   1
 DBCSR| Use multiplication densification                                       T
 DBCSR| Multiplication size stacks                                             3
 DBCSR| Use memory pool for CPU allocation                                     F
 DBCSR| Number of 3D layers                                               SINGLE
 DBCSR| Use MPI memory allocation                                              F
 DBCSR| Use RMA algorithm                                                      F
 DBCSR| Use Communication thread                                               T
 DBCSR| Communication thread load                                             75
 DBCSR| MPI: My node id                                                        0
 DBCSR| MPI: Number of nodes                                                 192
 DBCSR| OMP: Current number of threads                                         4
 DBCSR| OMP: Max number of threads                                             4
 DBCSR| Split modifier for TAS multiplication algorithm                  1.0E+00


  **** **** ******  **  PROGRAM STARTED AT               2023-11-06 15:54:05.012
 ***** ** ***  *** **   PROGRAM STARTED ON                             nid004232
 **    ****   ******    PROGRAM STARTED BY                                cahart
 ***** **    ** ** **   PROGRAM PROCESS ID                                 88924
  **** **  *******  **  PROGRAM STARTED IN /mnt/lustre/a2fs-work2/work/e05/e05/c
                                           ahart/postdoc/transport/cp2k-smeagol-
                                           examples/au-h2/cp2k-smeagol/transmiss
                                           ion/kpoints-3-3-20_omp-4_ParallelOver
                                           KNum-3_contour-single

 CP2K| version string:                 CP2K version 2022.1 (Development Version)
 CP2K| source code revision number:                                  git:215a478
 CP2K| cp2kflags: omp libint fftw3 libxc elpa parallel mpi3 scalapack mkl       
 CP2K| is freely available from                            https://www.cp2k.org/
 CP2K| Program compiled at                          Mon 30 Oct 16:32:24 GMT 2023
 CP2K| Program compiled on                                                  ln03
 CP2K| Program compiled for                                                local
 CP2K| Data directory path    /work/e05/e05/cahart/smeagol/smgl/cp2k-private-ser
 CP2K| Input file name                                                4_1.9V.inp

 GLOBAL| Force Environment number                                              1
 GLOBAL| Basis set file name                                        BASIS_MOLOPT
 GLOBAL| Potential file name                                      GTH_POTENTIALS
 GLOBAL| MM Potential file name                                     MM_POTENTIAL
 GLOBAL| Coordinate file name                                             em.xyz
 GLOBAL| Method name                                                        CP2K
 GLOBAL| Project name                                                       1.9V
 GLOBAL| Run type                                                         ENERGY
 GLOBAL| FFT library                                                       FFTW3
 GLOBAL| Diagonalization library                                            ELPA
 GLOBAL| Minimum number of eigenvectors for ELPA usage                        16
 GLOBAL| Orthonormality check for eigenvectors                          DISABLED
 GLOBAL| Matrix multiplication library                                 ScaLAPACK
 GLOBAL| All-to-all communication in single precision                          F
 GLOBAL| FFTs using library dependent lengths                                  T
 GLOBAL| Grid backend                                                       AUTO
 GLOBAL| Global print level                                               MEDIUM
 GLOBAL| MPI I/O enabled                                                       T
 GLOBAL| Total number of message passing processes                           192
 GLOBAL| Number of threads for this process                                    4
 GLOBAL| This output is from process                                           0
 GLOBAL| Stack size for threads created by OpenMP (OMP_STACKSIZE)        default
 GLOBAL| CPU model name                          AMD EPYC 7742 64-Core Processor
 GLOBAL| CPUID                                                              1002

 MEMORY| system memory details [Kb]
 MEMORY|                        rank 0           min           max       average
 MEMORY| MemTotal            263341976     263341976     263341976     263341976
 MEMORY| MemFree             244240808     244240808     247655180     246597741
 MEMORY| Buffers                     0             0             0             0
 MEMORY| Cached                3856300       1341956       3856300       1862130
 MEMORY| Slab                  2895916       2658796       2895916       2706582
 MEMORY| SReclaimable           127556        112832        127556        115896
 MEMORY| MemLikelyFree       248224664     248224664     249125320     248575769


 *** Fundamental physical constants (SI units) ***

 *** Literature: B. J. Mohr and B. N. Taylor,
 ***             CODATA recommended values of the fundamental physical
 ***             constants: 2006, Web Version 5.1
 ***             http://physics.nist.gov/constants

 Speed of light in vacuum [m/s]                             2.99792458000000E+08
 Magnetic constant or permeability of vacuum [N/A**2]       1.25663706143592E-06
 Electric constant or permittivity of vacuum [F/m]          8.85418781762039E-12
 Planck constant (h) [J*s]                                  6.62606896000000E-34
 Planck constant (h-bar) [J*s]                              1.05457162825177E-34
 Elementary charge [C]                                      1.60217648700000E-19
 Electron mass [kg]                                         9.10938215000000E-31
 Electron g factor [ ]                                     -2.00231930436220E+00
 Proton mass [kg]                                           1.67262163700000E-27
 Fine-structure constant                                    7.29735253760000E-03
 Rydberg constant [1/m]                                     1.09737315685270E+07
 Avogadro constant [1/mol]                                  6.02214179000000E+23
 Boltzmann constant [J/K]                                   1.38065040000000E-23
 Atomic mass unit [kg]                                      1.66053878200000E-27
 Bohr radius [m]                                            5.29177208590000E-11

 *** Conversion factors ***

 [u] -> [a.u.]                                              1.82288848426455E+03
 [Angstrom] -> [Bohr] = [a.u.]                              1.88972613288564E+00
 [a.u.] = [Bohr] -> [Angstrom]                              5.29177208590000E-01
 [a.u.] -> [s]                                              2.41888432650478E-17
 [a.u.] -> [fs]                                             2.41888432650478E-02
 [a.u.] -> [J]                                              4.35974393937059E-18
 [a.u.] -> [N]                                              8.23872205491840E-08
 [a.u.] -> [K]                                              3.15774647902944E+05
 [a.u.] -> [kJ/mol]                                         2.62549961709828E+03
 [a.u.] -> [kcal/mol]                                       6.27509468713739E+02
 [a.u.] -> [Pa]                                             2.94210107994716E+13
 [a.u.] -> [bar]                                            2.94210107994716E+08
 [a.u.] -> [atm]                                            2.90362800883016E+08
 [a.u.] -> [eV]                                             2.72113838565563E+01
 [a.u.] -> [Hz]                                             6.57968392072181E+15
 [a.u.] -> [1/cm] (wave numbers)                            2.19474631370540E+05
 [a.u./Bohr**2] -> [1/cm]                                   5.14048714338585E+03
 

 CELL_TOP| Volume [angstrom^3]:                                      3044.391638
 CELL_TOP| Vector a [angstrom     8.867     0.000     0.000   |a| =     8.867120
 CELL_TOP| Vector b [angstrom     0.000     8.867     0.000   |b| =     8.867120
 CELL_TOP| Vector c [angstrom     0.000     0.000    38.720   |c| =    38.720000
 CELL_TOP| Angle (b,c), alpha [degree]:                                90.000000
 CELL_TOP| Angle (a,c), beta  [degree]:                                90.000000
 CELL_TOP| Angle (a,b), gamma [degree]:                                90.000000
 CELL_TOP| Numerically orthorhombic:                                         YES
 CELL_TOP| Periodicity                                                       XYZ

 GENERATE|  Preliminary Number of Bonds generated:                             0
 GENERATE|  Achieved consistency in connectivity generation.

 CELL| Volume [angstrom^3]:                                          3044.391638
 CELL| Vector a [angstrom]:       8.867     0.000     0.000   |a| =     8.867120
 CELL| Vector b [angstrom]:       0.000     8.867     0.000   |b| =     8.867120
 CELL| Vector c [angstrom]:       0.000     0.000    38.720   |c| =    38.720000
 CELL| Angle (b,c), alpha [degree]:                                    90.000000
 CELL| Angle (a,c), beta  [degree]:                                    90.000000
 CELL| Angle (a,b), gamma [degree]:                                    90.000000
 CELL| Numerically orthorhombic:                                             YES
 CELL| Periodicity                                                           XYZ

 CELL_REF| Volume [angstrom^3]:                                      3044.391638
 CELL_REF| Vector a [angstrom     8.867     0.000     0.000   |a| =     8.867120
 CELL_REF| Vector b [angstrom     0.000     8.867     0.000   |b| =     8.867120
 CELL_REF| Vector c [angstrom     0.000     0.000    38.720   |c| =    38.720000
 CELL_REF| Angle (b,c), alpha [degree]:                                90.000000
 CELL_REF| Angle (a,c), beta  [degree]:                                90.000000
 CELL_REF| Angle (a,b), gamma [degree]:                                90.000000
 CELL_REF| Numerically orthorhombic:                                         YES
 CELL_REF| Periodicity                                                       XYZ

 *** WARNING in cryssym.F:165 :: Symmetry library SPGLIB not available ***


 *******************************************************************************
                                    Kpoints
 *******************************************************************************
 BRILLOUIN| K-point scheme                                        Monkhorst-Pack
 BRILLOUIN| K-Point grid                                             3    3    1
 BRILLOUIN| Accuracy in Symmetry determination                      0.100000E-07
 BRILLOUIN| K-Point point group symmetrization                               OFF
 BRILLOUIN| Wavefunction type                                            COMPLEX
 BRILLOUIN| Use full k-point grid     
 BRILLOUIN| List of Kpoints [2 Pi/Bohr]                                        9
 BRILLOUIN| Number           Weight            X              Y              Z
 BRILLOUIN|     1           0.11111       -0.33333       -0.33333        0.00000
 BRILLOUIN|     2           0.11111       -0.33333        0.00000        0.00000
 BRILLOUIN|     3           0.11111       -0.33333        0.33333        0.00000
 BRILLOUIN|     4           0.11111        0.00000       -0.33333        0.00000
 BRILLOUIN|     5           0.11111        0.00000        0.00000        0.00000
 BRILLOUIN|     6           0.11111        0.00000        0.33333        0.00000
 BRILLOUIN|     7           0.11111        0.33333       -0.33333        0.00000
 BRILLOUIN|     8           0.11111        0.33333        0.00000        0.00000
 BRILLOUIN|     9           0.11111        0.33333        0.33333        0.00000
 *******************************************************************************

 *******************************************************************************
 *******************************************************************************
 **                                                                           **
 **     #####                         ##              ##                      **
 **    ##   ##            ##          ##              ##                      **
 **   ##     ##                       ##            ######                    **
 **   ##     ##  ##   ##  ##   #####  ##  ##   ####   ##    #####    #####    **
 **   ##     ##  ##   ##  ##  ##      ## ##   ##      ##   ##   ##  ##   ##   **
 **   ##  ## ##  ##   ##  ##  ##      ####     ###    ##   ######   ######    **
 **    ##  ###   ##   ##  ##  ##      ## ##      ##   ##   ##       ##        **
 **     #######   #####   ##   #####  ##  ##  ####    ##    #####   ##        **
 **           ##                                                    ##        **
 **                                                                           **
 **                                                ... make the atoms dance   **
 **                                                                           **
 **            Copyright (C) by CP2K developers group (2000-2022)             **
 **                      J. Chem. Phys. 152, 194103 (2020)                    **
 **                                                                           **
 *******************************************************************************

 DFT| Spin restricted Kohn-Sham (RKS) calculation                            RKS
 DFT| Multiplicity                                                             2
 DFT| Number of spin states                                                    1
 DFT| Charge                                                                   0
 DFT| Self-interaction correction (SIC)                                       NO
 DFT| Cutoffs: density                                              1.000000E-10
 DFT|          gradient                                             1.000000E-10
 DFT|          tau                                                  1.000000E-10
 DFT|          cutoff_smoothing_range                               0.000000E+00
 DFT| XC density smoothing                                                  NONE
 DFT| XC derivatives                                                          PW

 FUNCTIONAL| PBE:
 FUNCTIONAL| J.P.Perdew, K.Burke, M.Ernzerhof, Phys. Rev. Letter, vol. 77, n 18,
 FUNCTIONAL|  pp. 3865-3868, (1996){spin unpolarized}                           


 QS| Method:                                                                 GPW
 QS| Density plane wave grid type                        NON-SPHERICAL FULLSPACE
 QS| Number of grid levels:                                                    4
 QS| Density cutoff [a.u.]:                                                300.0
 QS| Multi grid cutoff [a.u.]: 1) grid level                               300.0
 QS|                           2) grid level                               100.0
 QS|                           3) grid level                                33.3
 QS|                           4) grid level                                11.1
 QS| Grid level progression factor:                                          3.0
 QS| Relative density cutoff [a.u.]:                                        30.0
 QS| Interaction thresholds: eps_pgf_orb:                                1.0E-05
 QS|                         eps_filter_matrix:                          0.0E+00
 QS|                         eps_core_charge:                            1.0E-12
 QS|                         eps_rho_gspace:                             1.0E-10
 QS|                         eps_rho_rspace:                             1.0E-10
 QS|                         eps_gvg_rspace:                             1.0E-05
 QS|                         eps_ppl:                                    1.0E-02
 QS|                         eps_ppnl:                                   1.0E-07


 ATOMIC KIND INFORMATION

  1. Atomic kind: Au                                    Number of atoms:     111

     Orbital Basis Set                                         SZV-MOLOPT-SR-GTH

       Number of orbital shell sets:                                           1
       Number of orbital shells:                                               3
       Number of primitive Cartesian functions:                                5
       Number of Cartesian basis functions:                                   10
       Number of spherical basis functions:                                    9
       Norm type:                                                              2

       Normalised Cartesian orbitals:

                        Set   Shell   Orbital            Exponent    Coefficient

                          1       1    2s                2.950008       0.074626
                                                         1.563057      -0.007898
                                                         0.666664      -0.297688
                                                         0.251083       0.136809
                                                         0.081714       0.088198

                          1       2    3px               2.950008       0.148824
                                                         1.563057       0.025430
                                                         0.666664      -0.123003
                                                         0.251083       0.033648
                                                         0.081714       0.059008
                          1       2    3py               2.950008       0.148824
                                                         1.563057       0.025430
                                                         0.666664      -0.123003
                                                         0.251083       0.033648
                                                         0.081714       0.059008
                          1       2    3pz               2.950008       0.148824
                                                         1.563057       0.025430
                                                         0.666664      -0.123003
                                                         0.251083       0.033648
                                                         0.081714       0.059008

                          1       3    4dx2              2.950008      -0.139595
                                                         1.563057       1.319655
                                                         0.666664       0.377081
                                                         0.251083       0.046872
                                                         0.081714       0.001393
                          1       3    4dxy              2.950008      -0.241786
                                                         1.563057       2.285709
                                                         0.666664       0.653124
                                                         0.251083       0.081185
                                                         0.081714       0.002412
                          1       3    4dxz              2.950008      -0.241786
                                                         1.563057       2.285709
                                                         0.666664       0.653124
                                                         0.251083       0.081185
                                                         0.081714       0.002412
                          1       3    4dy2              2.950008      -0.139595
                                                         1.563057       1.319655
                                                         0.666664       0.377081
                                                         0.251083       0.046872
                                                         0.081714       0.001393
                          1       3    4dyz              2.950008      -0.241786
                                                         1.563057       2.285709
                                                         0.666664       0.653124
                                                         0.251083       0.081185
                                                         0.081714       0.002412
                          1       3    4dz2              2.950008      -0.139595
                                                         1.563057       1.319655
                                                         0.666664       0.377081
                                                         0.251083       0.046872
                                                         0.081714       0.001393

       Atomic covalent radius [Angstrom]:                                  1.340

       Atomic van der Waals radius [Angstrom]:                             1.660

     GTH Potential information for                                   GTH-PBE-q11

       Description:                       Goedecker-Teter-Hutter pseudopotential
                                           Goedecker et al., PRB 54, 1703 (1996)
                                          Hartwigsen et al., PRB 58, 3641 (1998)
                                                      Krack, TCA 114, 145 (2005)

       Gaussian exponent of the core charge distribution:               1.436369
       Electronic configuration (s p d ...):                           1   0  10

       Parameters of the local part of the GTH pseudopotential:

                          rloc        C1          C2          C3          C4
                        0.590000   10.517179

       Parameters of the non-local part of the GTH pseudopotential:

                   l      r(l)      h(i,j,l)

                   0    0.543847    5.786811   -2.250680
                                   -2.250680    2.905615
                   1    0.609173    4.284049   -4.071285
                                   -4.071285    4.817210
                   2    0.437309   -7.403281    3.010193
                                    3.010193   -3.413238

  2. Atomic kind: H                                     Number of atoms:       2

     Orbital Basis Set                                        DZVP-MOLOPT-SR-GTH

       Number of orbital shell sets:                                           1
       Number of orbital shells:                                               3
       Number of primitive Cartesian functions:                                5
       Number of Cartesian basis functions:                                    5
       Number of spherical basis functions:                                    5
       Norm type:                                                              2

       Normalised Cartesian orbitals:

                        Set   Shell   Orbital            Exponent    Coefficient

                          1       1    2s               10.068468      -0.133023
                                                         2.680223      -0.177618
                                                         0.791502      -0.258419
                                                         0.239116      -0.107525
                                                         0.082193      -0.014019

                          1       2    3s               10.068468       0.344673
                                                         2.680223       1.819821
                                                         0.791502      -0.999069
                                                         0.239116       0.017430
                                                         0.082193       0.082660

                          1       3    3px              10.068468       0.155326
                                                         2.680223       0.367157
                                                         0.791502       0.311480
                                                         0.239116       0.080105
                                                         0.082193       0.033440
                          1       3    3py              10.068468       0.155326
                                                         2.680223       0.367157
                                                         0.791502       0.311480
                                                         0.239116       0.080105
                                                         0.082193       0.033440
                          1       3    3pz              10.068468       0.155326
                                                         2.680223       0.367157
                                                         0.791502       0.311480
                                                         0.239116       0.080105
                                                         0.082193       0.033440

       Atomic covalent radius [Angstrom]:                                  0.320

       Atomic van der Waals radius [Angstrom]:                             1.090

     GTH Potential information for                                    GTH-PBE-q1

       Description:                       Goedecker-Teter-Hutter pseudopotential
                                           Goedecker et al., PRB 54, 1703 (1996)
                                          Hartwigsen et al., PRB 58, 3641 (1998)
                                                      Krack, TCA 114, 145 (2005)

       Gaussian exponent of the core charge distribution:              12.500000
       Electronic configuration (s p d ...):                                   1

       Parameters of the local part of the GTH pseudopotential:

                          rloc        C1          C2          C3          C4
                        0.200000   -4.178900    0.724463


 MOLECULE KIND INFORMATION


 All atoms are their own molecule, skipping detailed information


 TOTAL NUMBERS AND MAXIMUM NUMBERS

  Total number of            - Atomic kinds:                                   2
                             - Atoms:                                        113
                             - Shell sets:                                   113
                             - Shells:                                       339
                             - Primitive Cartesian functions:                565
                             - Cartesian basis functions:                   1120
                             - Spherical basis functions:                   1009

  Maximum angular momentum of- Orbital basis functions:                        2
                             - Local part of the GTH pseudopotential:          2
                             - Non-local part of the GTH pseudopotential:      4


 MODULE QUICKSTEP: ATOMIC COORDINATES IN ANGSTROM

   Atom Kind Element         X             Y             Z       Z(eff)     Mass
      1    1 Au   79      1.787000      1.281000      0.000000  11.0000 196.9666
      2    1 Au   79      0.309000      2.759000      2.090000  11.0000 196.9666
      3    1 Au   79      1.787000      1.281000      4.180000  11.0000 196.9666
      4    1 Au   79      0.309000      2.759000      6.270000  11.0000 196.9666
      5    1 Au   79      4.743000      1.281000      0.000000  11.0000 196.9666
      6    1 Au   79      3.265000      2.759000      2.090000  11.0000 196.9666
      7    1 Au   79      4.743000      1.281000      4.180000  11.0000 196.9666
      8    1 Au   79      3.265000      2.759000      6.270000  11.0000 196.9666
      9    1 Au   79      7.699000      1.281000      0.000000  11.0000 196.9666
     10    1 Au   79      6.221000      2.759000      2.090000  11.0000 196.9666
     11    1 Au   79      7.699000      1.281000      4.180000  11.0000 196.9666
     12    1 Au   79      6.221000      2.759000      6.270000  11.0000 196.9666
     13    1 Au   79      1.787000      4.236000      0.000000  11.0000 196.9666
     14    1 Au   79      0.309000      5.714000      2.090000  11.0000 196.9666
     15    1 Au   79      1.787000      4.236000      4.180000  11.0000 196.9666
     16    1 Au   79      0.309000      5.714000      6.270000  11.0000 196.9666
     17    1 Au   79      4.743000      4.236000      0.000000  11.0000 196.9666
     18    1 Au   79      3.265000      5.714000      2.090000  11.0000 196.9666
     19    1 Au   79      4.743000      4.236000      4.180000  11.0000 196.9666
     20    1 Au   79      3.265000      5.714000      6.270000  11.0000 196.9666
     21    1 Au   79      7.699000      4.236000      0.000000  11.0000 196.9666
     22    1 Au   79      6.221000      5.714000      2.090000  11.0000 196.9666
     23    1 Au   79      7.699000      4.236000      4.180000  11.0000 196.9666
     24    1 Au   79      6.221000      5.714000      6.270000  11.0000 196.9666
     25    1 Au   79      1.787000      7.192000      0.000000  11.0000 196.9666
     26    1 Au   79      0.309000      8.670000      2.090000  11.0000 196.9666
     27    1 Au   79      1.787000      7.192000      4.180000  11.0000 196.9666
     28    1 Au   79      0.309000      8.670000      6.270000  11.0000 196.9666
     29    1 Au   79      4.743000      7.192000      0.000000  11.0000 196.9666
     30    1 Au   79      3.265000      8.670000      2.090000  11.0000 196.9666
     31    1 Au   79      4.743000      7.192000      4.180000  11.0000 196.9666
     32    1 Au   79      3.265000      8.670000      6.270000  11.0000 196.9666
     33    1 Au   79      7.699000      7.192000      0.000000  11.0000 196.9666
     34    1 Au   79      6.221000      8.670000      2.090000  11.0000 196.9666
     35    1 Au   79      7.699000      7.192000      4.180000  11.0000 196.9666
     36    1 Au   79      6.221000      8.670000      6.270000  11.0000 196.9666
     37    1 Au   79      1.787000      1.281000      8.360000  11.0000 196.9666
     38    1 Au   79      1.787000      4.236000      8.360000  11.0000 196.9666
     39    1 Au   79      1.787000      7.192000      8.360000  11.0000 196.9666
     40    1 Au   79      4.743000      1.281000      8.360000  11.0000 196.9666
     41    1 Au   79      4.743000      4.236000      8.360000  11.0000 196.9666
     42    1 Au   79      4.743000      7.192000      8.360000  11.0000 196.9666
     43    1 Au   79      7.699000      1.281000      8.360000  11.0000 196.9666
     44    1 Au   79      7.699000      4.236000      8.360000  11.0000 196.9666
     45    1 Au   79      7.699000      7.192000      8.360000  11.0000 196.9666
     46    1 Au   79      0.309000      2.759000     10.450000  11.0000 196.9666
     47    1 Au   79      0.309000      5.714000     10.450000  11.0000 196.9666
     48    1 Au   79      0.309000      8.670000     10.450000  11.0000 196.9666
     49    1 Au   79      3.265000      2.759000     10.450000  11.0000 196.9666
     50    1 Au   79      3.265000      5.714000     10.450000  11.0000 196.9666
     51    1 Au   79      3.265000      8.670000     10.450000  11.0000 196.9666
     52    1 Au   79      6.221000      2.759000     10.450000  11.0000 196.9666
     53    1 Au   79      6.221000      5.714000     10.450000  11.0000 196.9666
     54    1 Au   79      6.221000      8.670000     10.450000  11.0000 196.9666
     55    1 Au   79      1.767000      4.215000     12.446000  11.0000 196.9666
     56    1 Au   79      1.766000      7.214000     12.446000  11.0000 196.9666
     57    1 Au   79      4.765000      4.213000     12.446000  11.0000 196.9666
     58    1 Au   79      4.767000      7.214000     12.445000  11.0000 196.9666
     59    1 Au   79      3.268000      5.717000     14.396000  11.0000 196.9666
     60    1 Au   79      3.267000      5.744000     17.050000  11.0000 196.9666
     61    2 H     1      3.254000      5.720000     18.927000   1.0000   1.0079
     62    2 H     1      3.260000      5.726000     19.796000   1.0000   1.0079
     63    1 Au   79      3.233000      5.712000     21.672000  11.0000 196.9666
     64    1 Au   79      3.264000      5.714000     24.326000  11.0000 196.9666
     65    1 Au   79      1.765000      4.213000     26.275000  11.0000 196.9666
     66    1 Au   79      1.765000      7.214000     26.274000  11.0000 196.9666
     67    1 Au   79      4.765000      4.214000     26.274000  11.0000 196.9666
     68    1 Au   79      4.765000      7.214000     26.275000  11.0000 196.9666
     69    1 Au   79      0.309000      2.759000     28.270000  11.0000 196.9666
     70    1 Au   79      0.309000      5.714000     28.270000  11.0000 196.9666
     71    1 Au   79      0.309000      8.670000     28.270000  11.0000 196.9666
     72    1 Au   79      3.265000      2.759000     28.270000  11.0000 196.9666
     73    1 Au   79      3.265000      5.714000     28.270000  11.0000 196.9666
     74    1 Au   79      3.265000      8.670000     28.270000  11.0000 196.9666
     75    1 Au   79      6.221000      2.759000     28.270000  11.0000 196.9666
     76    1 Au   79      6.221000      5.714000     28.270000  11.0000 196.9666
     77    1 Au   79      6.221000      8.670000     28.270000  11.0000 196.9666
     78    1 Au   79      1.787000      1.281000     30.360000  11.0000 196.9666
     79    1 Au   79      0.309000      2.759000     32.450000  11.0000 196.9666
     80    1 Au   79      1.787000      1.281000     34.540000  11.0000 196.9666
     81    1 Au   79      0.309000      2.759000     36.630000  11.0000 196.9666
     82    1 Au   79      4.743000      1.281000     30.360000  11.0000 196.9666
     83    1 Au   79      3.265000      2.759000     32.450000  11.0000 196.9666
     84    1 Au   79      4.743000      1.281000     34.540000  11.0000 196.9666
     85    1 Au   79      3.265000      2.759000     36.630000  11.0000 196.9666
     86    1 Au   79      7.699000      1.281000     30.360000  11.0000 196.9666
     87    1 Au   79      6.221000      2.759000     32.450000  11.0000 196.9666
     88    1 Au   79      7.699000      1.281000     34.540000  11.0000 196.9666
     89    1 Au   79      6.221000      2.759000     36.630000  11.0000 196.9666
     90    1 Au   79      1.787000      4.236000     30.360000  11.0000 196.9666
     91    1 Au   79      0.309000      5.714000     32.450000  11.0000 196.9666
     92    1 Au   79      1.787000      4.236000     34.540000  11.0000 196.9666
     93    1 Au   79      0.309000      5.714000     36.630000  11.0000 196.9666
     94    1 Au   79      4.743000      4.236000     30.360000  11.0000 196.9666
     95    1 Au   79      3.265000      5.714000     32.450000  11.0000 196.9666
     96    1 Au   79      4.743000      4.236000     34.540000  11.0000 196.9666
     97    1 Au   79      3.265000      5.714000     36.630000  11.0000 196.9666
     98    1 Au   79      7.699000      4.236000     30.360000  11.0000 196.9666
     99    1 Au   79      6.221000      5.714000     32.450000  11.0000 196.9666
    100    1 Au   79      7.699000      4.236000     34.540000  11.0000 196.9666
    101    1 Au   79      6.221000      5.714000     36.630000  11.0000 196.9666
    102    1 Au   79      1.787000      7.192000     30.360000  11.0000 196.9666
    103    1 Au   79      0.309000      8.670000     32.450000  11.0000 196.9666
    104    1 Au   79      1.787000      7.192000     34.540000  11.0000 196.9666
    105    1 Au   79      0.309000      8.670000     36.630000  11.0000 196.9666
    106    1 Au   79      4.743000      7.192000     30.360000  11.0000 196.9666
    107    1 Au   79      3.265000      8.670000     32.450000  11.0000 196.9666
    108    1 Au   79      4.743000      7.192000     34.540000  11.0000 196.9666
    109    1 Au   79      3.265000      8.670000     36.630000  11.0000 196.9666
    110    1 Au   79      7.699000      7.192000     30.360000  11.0000 196.9666
    111    1 Au   79      6.221000      8.670000     32.450000  11.0000 196.9666
    112    1 Au   79      7.699000      7.192000     34.540000  11.0000 196.9666
    113    1 Au   79      6.221000      8.670000     36.630000  11.0000 196.9666



 SCF PARAMETERS         Density guess:                                   RESTART
                        --------------------------------------------------------
                        max_scf:                                             500
                        max_scf_history:                                       0
                        max_diis:                                              4
                        --------------------------------------------------------
                        eps_scf:                                        1.00E-08
                        eps_scf_history:                                0.00E+00
                        eps_diis:                                       1.00E-01
                        eps_eigval:                                     1.00E-05
                        --------------------------------------------------------
                        level_shift [a.u.]:                             0.000000
                        added MOs                                       100    0
                        --------------------------------------------------------
                        Mixing method:                            BROYDEN_MIXING
                                                charge density mixing in g-space
                        --------------------------------------------------------
                        Smear method:                                FERMI_DIRAC
                        Electronic temperature [K]:                        293.0
                        Electronic temperature [a.u.]:                  9.28E-04
                        Accuracy threshold:                             1.00E-10
                        --------------------------------------------------------
                        No outer SCF

 PW_GRID| Information for grid number                                          1
 PW_GRID| Grid distributed over                                   192 processors
 PW_GRID| Real space group dimensions                                    12   16
 PW_GRID| the grid is blocked:                                               YES
 PW_GRID| Cutoff [a.u.]                                                    300.0
 PW_GRID| spherical cutoff:                                                   NO
 PW_GRID|   Bounds   1            -66      65                Points:         132
 PW_GRID|   Bounds   2            -66      65                Points:         132
 PW_GRID|   Bounds   3           -288     287                Points:         576
 PW_GRID| Volume element (a.u.^3)  0.2047E-02     Volume (a.u.^3)     20544.5734
 PW_GRID| Grid span                                                    FULLSPACE
 PW_GRID|   Distribution                         Average         Max         Min
 PW_GRID|   G-Vectors                            52272.0       52272       52272
 PW_GRID|   G-Rays                                 396.0         396         396
 PW_GRID|   Real Space Points                    52272.0       52272       52272

 PW_GRID| Information for grid number                                          2
 PW_GRID| Number of the reference grid                                         1
 PW_GRID| Grid distributed over                                   192 processors
 PW_GRID| Real space group dimensions                                    12   16
 PW_GRID| the grid is blocked:                                                NO
 PW_GRID| Cutoff [a.u.]                                                    100.0
 PW_GRID| spherical cutoff:                                                   NO
 PW_GRID|   Bounds   1            -37      37                Points:          75
 PW_GRID|   Bounds   2            -37      37                Points:          75
 PW_GRID|   Bounds   3           -165     164                Points:         330
 PW_GRID| Volume element (a.u.^3)  0.1107E-01     Volume (a.u.^3)     20544.5734
 PW_GRID| Grid span                                                    FULLSPACE
 PW_GRID|   Distribution                         Average         Max         Min
 PW_GRID|   G-Vectors                             9668.0       29700           0
 PW_GRID|   G-Rays                                 128.9         396           0
 PW_GRID|   Real Space Points                     9668.0       11550        7920

 PW_GRID| Information for grid number                                          3
 PW_GRID| Number of the reference grid                                         1
 PW_GRID| Grid distributed over                                   192 processors
 PW_GRID| Real space group dimensions                                    12   16
 PW_GRID| the grid is blocked:                                                NO
 PW_GRID| Cutoff [a.u.]                                                     33.3
 PW_GRID| spherical cutoff:                                                   NO
 PW_GRID|   Bounds   1            -22      21                Points:          44
 PW_GRID|   Bounds   2            -22      21                Points:          44
 PW_GRID|   Bounds   3            -96      95                Points:         192
 PW_GRID| Volume element (a.u.^3)  0.5527E-01     Volume (a.u.^3)     20544.5734
 PW_GRID| Grid span                                                    FULLSPACE
 PW_GRID|   Distribution                         Average         Max         Min
 PW_GRID|   G-Vectors                             1936.0       17424           0
 PW_GRID|   G-Rays                                  44.0         396           0
 PW_GRID|   Real Space Points                     1936.0        2304        1152

 PW_GRID| Information for grid number                                          4
 PW_GRID| Number of the reference grid                                         1
 PW_GRID| Grid distributed over                                   192 processors
 PW_GRID| Real space group dimensions                                    12   16
 PW_GRID| the grid is blocked:                                                NO
 PW_GRID| Cutoff [a.u.]                                                     11.1
 PW_GRID| spherical cutoff:                                                   NO
 PW_GRID|   Bounds   1            -12      12                Points:          25
 PW_GRID|   Bounds   2            -12      12                Points:          25
 PW_GRID|   Bounds   3            -55      54                Points:         110
 PW_GRID| Volume element (a.u.^3)  0.2988         Volume (a.u.^3)     20544.5734
 PW_GRID| Grid span                                                    FULLSPACE
 PW_GRID|   Distribution                         Average         Max         Min
 PW_GRID|   G-Vectors                              358.1        9900           0
 PW_GRID|   G-Rays                                  14.3         396           0
 PW_GRID|   Real Space Points                      358.1         660         220

 POISSON| Solver                                                        PERIODIC
 POISSON| Periodicity                                                        XYZ

 RS_GRID| Information for grid number                                          1
 RS_GRID|   Bounds   1            -66      65                Points:         132
 RS_GRID|   Bounds   2            -66      65                Points:         132
 RS_GRID|   Bounds   3           -288     287                Points:         576
 RS_GRID| Real space distribution over                                  6 groups
 RS_GRID| Real space distribution along direction                              2
 RS_GRID| Border size                                                         35
 RS_GRID| Real space distribution over                                 32 groups
 RS_GRID| Real space distribution along direction                              3
 RS_GRID| Border size                                                         35
 RS_GRID|   Distribution                         Average         Max         Min
 RS_GRID|   Planes                                  92.0          92          92
 RS_GRID|   Distribution                         Average         Max         Min
 RS_GRID|   Planes                                  88.0          88          88

 RS_GRID| Information for grid number                                          2
 RS_GRID|   Bounds   1            -37      37                Points:          75
 RS_GRID|   Bounds   2            -37      37                Points:          75
 RS_GRID|   Bounds   3           -165     164                Points:         330
 RS_GRID| Real space distribution over                                  6 groups
 RS_GRID| Real space distribution along direction                              2
 RS_GRID| Border size                                                         24
 RS_GRID| Real space distribution over                                 32 groups
 RS_GRID| Real space distribution along direction                              3
 RS_GRID| Border size                                                         24
 RS_GRID|   Distribution                         Average         Max         Min
 RS_GRID|   Planes                                  60.5          61          60
 RS_GRID|   Distribution                         Average         Max         Min
 RS_GRID|   Planes                                  58.3          59          58

 RS_GRID| Information for grid number                                          3
 RS_GRID|   Bounds   1            -22      21                Points:          44
 RS_GRID|   Bounds   2            -22      21                Points:          44
 RS_GRID|   Bounds   3            -96      95                Points:         192
 RS_GRID| Real space fully replicated
 RS_GRID| Group size                                                           1

 RS_GRID| Information for grid number                                          4
 RS_GRID|   Bounds   1            -12      12                Points:          25
 RS_GRID|   Bounds   2            -12      12                Points:          25
 RS_GRID|   Bounds   3            -55      54                Points:         110
 RS_GRID| Real space fully replicated
 RS_GRID| Group size                                                           1

 KPOINTS| Number of kpoint groups                                              1
 KPOINTS| Size of each kpoint group                                          192
 KPOINTS| Number of kpoints per group                                          9

 Number of electrons:                                                       1223
 Number of occupied orbitals:                                                612
 Number of molecular orbitals:                                               712

 Number of orbital functions:                                               1009
 Number of independent orbital functions:                                   1009

 Extrapolation method: initial_guess


 SCF WAVEFUNCTION OPTIMIZATION

  Step     Update method      Time    Convergence         Total energy    Change
  ------------------------------------------------------------------------------
 SMEAGOL DEBUG| Number of electrons in the unit cell =      1223.0000000003
     1 NoMix/SMGL  0.30E+00   38.3     1.68784134     -3690.6583110547 -3.69E+03
 SMEAGOL DEBUG| Number of electrons in the unit cell =      1222.1712509224
     2 Broy./SMGL  0.30E+00    5.2    12.60131283     -3690.0543106228  6.04E-01
 SMEAGOL DEBUG| Number of electrons in the unit cell =      1220.2413781364
     3 Broy./SMGL  0.30E+00    5.0    12.60593764     -3842.4286803604 -1.52E+02
 SMEAGOL DEBUG| Number of electrons in the unit cell =      1221.4445069183
     4 Broy./SMGL  0.30E+00    5.1     0.56958801     -3702.4624763317  1.40E+02
 SMEAGOL DEBUG| Number of electrons in the unit cell =      1222.9966605805
     5 Broy./SMGL  0.30E+00    5.0     0.13722714     -3678.0249115075  2.44E+01
 SMEAGOL DEBUG| Number of electrons in the unit cell =      1222.4327181084
     6 Broy./SMGL  0.30E+00    5.0     0.07182137     -3685.5612258774 -7.54E+00
 SMEAGOL DEBUG| Number of electrons in the unit cell =      1222.6305664330
     7 Broy./SMGL  0.30E+00    5.1     0.04739173     -3684.2114927894  1.35E+00
 SMEAGOL DEBUG| Number of electrons in the unit cell =      1222.8904768313
     8 Broy./SMGL  0.30E+00    5.1     0.06933582     -3685.6725921914 -1.46E+00
 SMEAGOL DEBUG| Number of electrons in the unit cell =      1223.0083944195
     9 Broy./SMGL  0.30E+00    5.0     0.02891703     -3687.3778258051 -1.71E+00
 SMEAGOL DEBUG| Number of electrons in the unit cell =      1223.0671411640
    10 Broy./SMGL  0.30E+00    5.0     0.01538505     -3688.3428512293 -9.65E-01
 SMEAGOL DEBUG| Number of electrons in the unit cell =      1223.1066244790
    11 Broy./SMGL  0.30E+00    5.1     0.01117044     -3688.2260320175  1.17E-01
 SMEAGOL DEBUG| Number of electrons in the unit cell =      1223.3627829435
    12 Broy./SMGL  0.30E+00    5.0     0.06821915     -3688.3966707498 -1.71E-01
 SMEAGOL DEBUG| Number of electrons in the unit cell =      1223.2186198463
    13 Broy./SMGL  0.30E+00    5.1     0.06902134     -3689.9999971177 -1.60E+00
 SMEAGOL DEBUG| Number of electrons in the unit cell =      1223.1720638777
    14 Broy./SMGL  0.30E+00    5.0     0.02029109     -3691.5228464334 -1.52E+00
 SMEAGOL DEBUG| Number of electrons in the unit cell =      1223.1151289453
    15 Broy./SMGL  0.30E+00    5.0     0.01227428     -3690.3846195883  1.14E+00
 SMEAGOL DEBUG| Number of electrons in the unit cell =      1223.0733604085
    16 Broy./SMGL  0.30E+00    5.0     0.01100022     -3690.4710696370 -8.65E-02
 SMEAGOL DEBUG| Number of electrons in the unit cell =      1223.0267911920
    17 Broy./SMGL  0.30E+00    5.0     0.00512523     -3690.9732229972 -5.02E-01
 SMEAGOL DEBUG| Number of electrons in the unit cell =      1223.0016166065
    18 Broy./SMGL  0.30E+00    5.0     0.00075713     -3690.6566937777  3.17E-01
 SMEAGOL DEBUG| Number of electrons in the unit cell =      1222.9772996020
    19 Broy./SMGL  0.30E+00    5.0     0.00322861     -3690.6754916917 -1.88E-02
 SMEAGOL DEBUG| Number of electrons in the unit cell =      1222.9676820539
    20 Broy./SMGL  0.30E+00    5.0     0.00089202     -3690.5065368150  1.69E-01
 SMEAGOL DEBUG| Number of electrons in the unit cell =      1222.9681195649
    21 Broy./SMGL  0.30E+00    5.1     0.00015868     -3690.5405690214 -3.40E-02
 SMEAGOL DEBUG| Number of electrons in the unit cell =      1222.9644536282
    22 Broy./SMGL  0.30E+00    5.0     0.00017431     -3690.5383434776  2.23E-03
 SMEAGOL DEBUG| Number of electrons in the unit cell =      1222.9641787902
    23 Broy./SMGL  0.30E+00    5.0     0.00016401     -3690.5406372475 -2.29E-03
 SMEAGOL DEBUG| Number of electrons in the unit cell =      1222.9635229071
    24 Broy./SMGL  0.30E+00    5.0     0.00009673     -3690.5305767584  1.01E-02
 SMEAGOL DEBUG| Number of electrons in the unit cell =      1222.9642044395
    25 Broy./SMGL  0.30E+00    5.0     0.00009122     -3690.5312222644 -6.46E-04
 SMEAGOL DEBUG| Number of electrons in the unit cell =      1222.9625341144
    26 Broy./SMGL  0.30E+00    5.0     0.00011237     -3690.5338740189 -2.65E-03
 SMEAGOL DEBUG| Number of electrons in the unit cell =      1222.9631839393
    27 Broy./SMGL  0.30E+00    5.1     0.00004599     -3690.5275992527  6.27E-03
 SMEAGOL DEBUG| Number of electrons in the unit cell =      1222.9634501977
    28 Broy./SMGL  0.30E+00    5.0     0.00002007     -3690.5301557926 -2.56E-03
 SMEAGOL DEBUG| Number of electrons in the unit cell =      1222.9640400199
    29 Broy./SMGL  0.30E+00    5.0     0.00001769     -3690.5295153199  6.40E-04
 SMEAGOL DEBUG| Number of electrons in the unit cell =      1222.9645102058
    30 Broy./SMGL  0.30E+00    5.0     0.00003308     -3690.5298806319 -3.65E-04
 SMEAGOL DEBUG| Number of electrons in the unit cell =      1222.9646012200
    31 Broy./SMGL  0.30E+00    5.1     0.00000943     -3690.5295816198  2.99E-04
 SMEAGOL DEBUG| Number of electrons in the unit cell =      1222.9646555972
    32 Broy./SMGL  0.30E+00    5.1     0.00001815     -3690.5300525108 -4.71E-04
 SMEAGOL DEBUG| Number of electrons in the unit cell =      1222.9646275589
    33 Broy./SMGL  0.30E+00    5.0     0.00001171     -3690.5291455923  9.07E-04
 SMEAGOL DEBUG| Number of electrons in the unit cell =      1222.9646838221
    34 Broy./SMGL  0.30E+00    5.0     0.00000464     -3690.5296962643 -5.51E-04
 SMEAGOL DEBUG| Number of electrons in the unit cell =      1222.9646549731
    35 Broy./SMGL  0.30E+00    5.1     0.00000694     -3690.5299259382 -2.30E-04
 SMEAGOL DEBUG| Number of electrons in the unit cell =      1222.9646319896
    36 Broy./SMGL  0.30E+00    5.0     0.00000675     -3690.5299601816 -3.42E-05
 SMEAGOL DEBUG| Number of electrons in the unit cell =      1222.9646081033
    37 Broy./SMGL  0.30E+00    5.0     0.00000128     -3690.5297756604  1.85E-04
 SMEAGOL DEBUG| Number of electrons in the unit cell =      1222.9645714051
    38 Broy./SMGL  0.30E+00    5.1     0.00000077     -3690.5297800084 -4.35E-06
 SMEAGOL DEBUG| Number of electrons in the unit cell =      1222.9645591334
    39 Broy./SMGL  0.30E+00    5.1     0.00000064     -3690.5298019008 -2.19E-05
 SMEAGOL DEBUG| Number of electrons in the unit cell =      1222.9645497293
    40 Broy./SMGL  0.30E+00    5.0     0.00000042     -3690.5298349636 -3.31E-05
 SMEAGOL DEBUG| Number of electrons in the unit cell =      1222.9645445344
    41 Broy./SMGL  0.30E+00    5.0     0.00000084     -3690.5298517090 -1.67E-05
 SMEAGOL DEBUG| Number of electrons in the unit cell =      1222.9645437419
    42 Broy./SMGL  0.30E+00    5.0     0.00000055     -3690.5298163986  3.53E-05
 SMEAGOL DEBUG| Number of electrons in the unit cell =      1222.9645458247
    43 Broy./SMGL  0.30E+00    5.0     0.00000043     -3690.5298108409  5.56E-06
 SMEAGOL DEBUG| Number of electrons in the unit cell =      1222.9645467433
    44 Broy./SMGL  0.30E+00    5.0     0.00000039     -3690.5298336603 -2.28E-05
 SMEAGOL DEBUG| Number of electrons in the unit cell =      1222.9645474131
    45 Broy./SMGL  0.30E+00    5.1     0.00000012     -3690.5298171026  1.66E-05
 SMEAGOL DEBUG| Number of electrons in the unit cell =      1222.9645489593
    46 Broy./SMGL  0.30E+00    5.1     0.00000009     -3690.5298222109 -5.11E-06
 SMEAGOL DEBUG| Number of electrons in the unit cell =      1222.9645500640
    47 Broy./SMGL  0.30E+00    5.2     0.00000010     -3690.5298210239  1.19E-06
 SMEAGOL DEBUG| Number of electrons in the unit cell =      1222.9645502412
    48 Broy./SMGL  0.30E+00    5.0     0.00000002     -3690.5298262594 -5.24E-06
 SMEAGOL DEBUG| Number of electrons in the unit cell =      1222.9645501531
    49 Broy./SMGL  0.30E+00    5.1     0.00000004     -3690.5298263435 -8.41E-08
 SMEAGOL DEBUG| Number of electrons in the unit cell =      1222.9645501920
    50 Broy./SMGL  0.30E+00    5.0     0.00000002     -3690.5298239561  2.39E-06
 SMEAGOL DEBUG| Number of electrons in the unit cell =      1222.9645501564
    51 Broy./SMGL  0.30E+00    5.1     0.00000001     -3690.5298242867 -3.31E-07
 SMEAGOL DEBUG| Number of electrons in the unit cell =      1222.9645501287
    52 Broy./SMGL  0.30E+00    5.1     9.3557E-09     -3690.5298247356 -4.49E-07

  *** SCF run converged in    52 steps ***


  Electronic density on regular grids:      -1222.9645501287        0.0354498713
  Core density on regular grids:             1222.9999997993       -0.0000002007
  Total charge density on r-space grids:        0.0354496706
  Total charge density g-space grids:           0.0354496706

  Overlap energy of the core charge distribution:               0.00000048998631
  Self energy of the core charge distribution:              -6424.54153828207382
  Core Hamiltonian energy:                                   2052.33782082588596
  Hartree energy:                                            1265.03183210273119
  Exchange-correlation energy:                               -583.35793987208933
  Electronic entropic energy:                                   0.00000000000000
  Fermi energy:                                                 0.00000000000000

  Total energy:                                             -3690.52982473555994

 The electron density is written in cube file format to the file:

 1.9V-ELECTRON_DENSITY-1_0.cube

 !-----------------------------------------------------------------------------!
                     Mulliken Population Analysis

 #  Atom  Element  Kind  Atomic population                           Net charge
       1     Au       1         11.000100                             -0.000100
       2     Au       1         10.999302                              0.000698
       3     Au       1         10.987766                              0.012234
       4     Au       1         10.988567                              0.011433
       5     Au       1         11.000161                             -0.000161
       6     Au       1         10.999492                              0.000508
       7     Au       1         10.987812                              0.012188
       8     Au       1         10.983460                              0.016540
       9     Au       1         10.999915                              0.000085
      10     Au       1         10.999486                              0.000514
      11     Au       1         10.989705                              0.010295
      12     Au       1         10.988746                              0.011254
      13     Au       1         10.999859                              0.000141
      14     Au       1         10.999445                              0.000555
      15     Au       1         10.987501                              0.012499
      16     Au       1         10.983421                              0.016579
      17     Au       1         10.999921                              0.000079
      18     Au       1         10.999759                              0.000241
      19     Au       1         10.987567                              0.012433
      20     Au       1         10.977449                              0.022551
      21     Au       1         10.999675                              0.000325
      22     Au       1         10.999629                              0.000371
      23     Au       1         10.987337                              0.012663
      24     Au       1         10.983606                              0.016394
      25     Au       1         11.000144                             -0.000144
      26     Au       1         10.999607                              0.000393
      27     Au       1         10.987786                              0.012214
      28     Au       1         10.988872                              0.011128
      29     Au       1         11.000206                             -0.000206
      30     Au       1         10.999797                              0.000203
      31     Au       1         10.987851                              0.012149
      32     Au       1         10.983837                              0.016163
      33     Au       1         10.999960                              0.000040
      34     Au       1         10.999790                              0.000210
      35     Au       1         10.987596                              0.012404
      36     Au       1         10.989071                              0.010929
      37     Au       1         10.986054                              0.013946
      38     Au       1         10.946581                              0.053419
      39     Au       1         10.947049                              0.052951
      40     Au       1         10.986309                              0.013691
      41     Au       1         10.946823                              0.053177
      42     Au       1         10.947279                              0.052721
      43     Au       1         11.016378                             -0.016378
      44     Au       1         10.985531                              0.014469
      45     Au       1         10.986064                              0.013936
      46     Au       1         11.085772                             -0.085772
      47     Au       1         11.028810                             -0.028810
      48     Au       1         11.085987                             -0.085987
      49     Au       1         11.028815                             -0.028815
      50     Au       1         10.879076                              0.120924
      51     Au       1         11.029285                             -0.029285
      52     Au       1         11.085893                             -0.085893
      53     Au       1         11.028794                             -0.028794
      54     Au       1         11.086003                             -0.086003
      55     Au       1         11.018996                             -0.018996
      56     Au       1         11.018256                             -0.018256
      57     Au       1         11.018682                             -0.018682
      58     Au       1         11.017968                             -0.017968
      59     Au       1         11.115439                             -0.115439
      60     Au       1         11.049621                             -0.049621
      61     H        2          0.952199                              0.047801
      62     H        2          0.959984                              0.040016
      63     Au       1         11.070947                             -0.070947
      64     Au       1         11.174238                             -0.174238
      65     Au       1         11.003906                             -0.003906
      66     Au       1         11.003924                             -0.003924
      67     Au       1         11.004294                             -0.004294
      68     Au       1         11.004303                             -0.004303
      69     Au       1         11.029582                             -0.029582
      70     Au       1         10.988385                              0.011615
      71     Au       1         11.029864                             -0.029864
      72     Au       1         10.988684                              0.011316
      73     Au       1         10.873218                              0.126782
      74     Au       1         10.989014                              0.010986
      75     Au       1         11.029863                             -0.029863
      76     Au       1         10.988730                              0.011270
      77     Au       1         11.029942                             -0.029942
      78     Au       1         10.999167                              0.000833
      79     Au       1         10.986347                              0.013653
      80     Au       1         10.999982                              0.000018
      81     Au       1         10.999680                              0.000320
      82     Au       1         10.999239                              0.000761
      83     Au       1         10.987088                              0.012912
      84     Au       1         11.000046                             -0.000046
      85     Au       1         10.999927                              0.000073
      86     Au       1         11.022584                             -0.022584
      87     Au       1         10.986436                              0.013564
      88     Au       1         10.999973                              0.000027
      89     Au       1         10.999865                              0.000135
      90     Au       1         10.964770                              0.035230
      91     Au       1         10.987029                              0.012971
      92     Au       1         10.999688                              0.000312
      93     Au       1         10.999879                              0.000121
      94     Au       1         10.964770                              0.035230
      95     Au       1         10.991649                              0.008351
      96     Au       1         10.999750                              0.000250
      97     Au       1         11.000127                             -0.000127
      98     Au       1         10.998729                              0.001271
      99     Au       1         10.987201                              0.012799
     100     Au       1         10.999558                              0.000442
     101     Au       1         11.000063                             -0.000063
     102     Au       1         10.965086                              0.034914
     103     Au       1         10.986661                              0.013339
     104     Au       1         10.999974                              0.000026
     105     Au       1         10.999984                              0.000016
     106     Au       1         10.965103                              0.034897
     107     Au       1         10.987385                              0.012615
     108     Au       1         11.000035                             -0.000035
     109     Au       1         11.000230                             -0.000230
     110     Au       1         10.999052                              0.000948
     111     Au       1         10.986745                              0.013255
     112     Au       1         10.999845                              0.000155
     113     Au       1         11.000167                             -0.000167
 # Total charge                           1222.964550                  0.035450

 !-----------------------------------------------------------------------------!

 !-----------------------------------------------------------------------------!
                           Hirshfeld Charges

  #Atom  Element  Kind  Ref Charge     Population                    Net charge
      1       Au     1      11.000         11.000                        -0.000
      2       Au     1      11.000         11.000                         0.000
      3       Au     1      11.000         10.999                         0.001
      4       Au     1      11.000         10.996                         0.004
      5       Au     1      11.000         11.000                        -0.000
      6       Au     1      11.000         11.000                         0.000
      7       Au     1      11.000         10.999                         0.001
      8       Au     1      11.000         11.000                         0.000
      9       Au     1      11.000         11.000                         0.000
     10       Au     1      11.000         11.000                         0.000
     11       Au     1      11.000         11.000                         0.000
     12       Au     1      11.000         10.996                         0.004
     13       Au     1      11.000         11.000                         0.000
     14       Au     1      11.000         11.000                         0.000
     15       Au     1      11.000         10.999                         0.001
     16       Au     1      11.000         11.000                         0.000
     17       Au     1      11.000         11.000                         0.000
     18       Au     1      11.000         11.000                        -0.000
     19       Au     1      11.000         10.999                         0.001
     20       Au     1      11.000         10.997                         0.003
     21       Au     1      11.000         11.000                         0.000
     22       Au     1      11.000         11.000                        -0.000
     23       Au     1      11.000         10.999                         0.001
     24       Au     1      11.000         11.000                         0.000
     25       Au     1      11.000         11.000                        -0.000
     26       Au     1      11.000         11.000                         0.000
     27       Au     1      11.000         10.999                         0.001
     28       Au     1      11.000         10.995                         0.005
     29       Au     1      11.000         11.000                        -0.000
     30       Au     1      11.000         11.000                        -0.000
     31       Au     1      11.000         10.999                         0.001
     32       Au     1      11.000         11.000                         0.000
     33       Au     1      11.000         11.000                         0.000
     34       Au     1      11.000         11.000                        -0.000
     35       Au     1      11.000         10.999                         0.001
     36       Au     1      11.000         10.996                         0.004
     37       Au     1      11.000         10.992                         0.008
     38       Au     1      11.000         10.994                         0.006
     39       Au     1      11.000         10.994                         0.006
     40       Au     1      11.000         10.992                         0.008
     41       Au     1      11.000         10.994                         0.006
     42       Au     1      11.000         10.994                         0.006
     43       Au     1      11.000         10.990                         0.010
     44       Au     1      11.000         10.991                         0.009
     45       Au     1      11.000         10.992                         0.008
     46       Au     1      11.000         11.031                        -0.031
     47       Au     1      11.000         11.010                        -0.010
     48       Au     1      11.000         11.031                        -0.031
     49       Au     1      11.000         11.010                        -0.010
     50       Au     1      11.000         10.974                         0.026
     51       Au     1      11.000         11.011                        -0.011
     52       Au     1      11.000         11.031                        -0.031
     53       Au     1      11.000         11.010                        -0.010
     54       Au     1      11.000         11.031                        -0.031
     55       Au     1      11.000         10.989                         0.011
     56       Au     1      11.000         10.989                         0.011
     57       Au     1      11.000         10.989                         0.011
     58       Au     1      11.000         10.989                         0.011
     59       Au     1      11.000         11.019                        -0.019
     60       Au     1      11.000         10.974                         0.026
     61       H      2       1.000          1.043                        -0.043
     62       H      2       1.000          1.052                        -0.052
     63       Au     1      11.000         10.986                         0.014
     64       Au     1      11.000         11.057                        -0.057
     65       Au     1      11.000         10.970                         0.030
     66       Au     1      11.000         10.970                         0.030
     67       Au     1      11.000         10.971                         0.029
     68       Au     1      11.000         10.971                         0.029
     69       Au     1      11.000         11.031                        -0.031
     70       Au     1      11.000         11.012                        -0.012
     71       Au     1      11.000         11.031                        -0.031
     72       Au     1      11.000         11.012                        -0.012
     73       Au     1      11.000         10.976                         0.024
     74       Au     1      11.000         11.012                        -0.012
     75       Au     1      11.000         11.031                        -0.031
     76       Au     1      11.000         11.012                        -0.012
     77       Au     1      11.000         11.031                        -0.031
     78       Au     1      11.000         10.980                         0.020
     79       Au     1      11.000         10.998                         0.002
     80       Au     1      11.000         11.000                        -0.000
     81       Au     1      11.000         11.000                         0.000
     82       Au     1      11.000         10.980                         0.020
     83       Au     1      11.000         10.998                         0.002
     84       Au     1      11.000         11.000                        -0.000
     85       Au     1      11.000         11.000                         0.000
     86       Au     1      11.000         10.983                         0.017
     87       Au     1      11.000         10.998                         0.002
     88       Au     1      11.000         11.000                         0.000
     89       Au     1      11.000         11.000                         0.000
     90       Au     1      11.000         10.982                         0.018
     91       Au     1      11.000         10.998                         0.002
     92       Au     1      11.000         11.000                         0.000
     93       Au     1      11.000         11.000                         0.000
     94       Au     1      11.000         10.982                         0.018
     95       Au     1      11.000         10.999                         0.001
     96       Au     1      11.000         11.000                         0.000
     97       Au     1      11.000         11.000                        -0.000
     98       Au     1      11.000         10.980                         0.020
     99       Au     1      11.000         10.998                         0.002
    100       Au     1      11.000         11.000                         0.000
    101       Au     1      11.000         11.000                        -0.000
    102       Au     1      11.000         10.982                         0.018
    103       Au     1      11.000         10.998                         0.002
    104       Au     1      11.000         11.000                        -0.000
    105       Au     1      11.000         11.000                         0.000
    106       Au     1      11.000         10.982                         0.018
    107       Au     1      11.000         10.998                         0.002
    108       Au     1      11.000         11.000                        -0.000
    109       Au     1      11.000         11.000                        -0.000
    110       Au     1      11.000         10.980                         0.020
    111       Au     1      11.000         10.998                         0.002
    112       Au     1      11.000         11.000                         0.000
    113       Au     1      11.000         11.000                        -0.000

  Total Charge                                                            0.035
 !-----------------------------------------------------------------------------!
 Calculating transmission coefficient

 ENERGY| Total FORCE_EVAL ( QS ) energy [a.u.]:            -3690.529824735559941

 -------------------------------------------------------------------------------
 -                                                                             -
 -                                DBCSR STATISTICS                             -
 -                                                                             -
 -------------------------------------------------------------------------------
 COUNTER                                    TOTAL       BLAS       SMM       ACC
 flops inhomo. stacks                           0       0.0%      0.0%      0.0%
 flops total                         0.000000E+00       0.0%      0.0%      0.0%
 flops max/rank                      0.000000E+00       0.0%      0.0%      0.0%
 matmuls inhomo. stacks                         0       0.0%      0.0%      0.0%
 matmuls total                                  0       0.0%      0.0%      0.0%
 number of processed stacks                     0       0.0%      0.0%      0.0%
 average stack size                                     0.0       0.0       0.0
 marketing flops                     0.000000E+00
 -------------------------------------------------------------------------------
 -                                                                             -
 -                      DBCSR MESSAGE PASSING PERFORMANCE                      -
 -                                                                             -
 -------------------------------------------------------------------------------
 ROUTINE             CALLS      AVE VOLUME [Bytes]
 MP_Bcast                1                     12.
 MP_Allreduce         3659                      8.
 MP_Alltoall          1505                 112615.
 -------------------------------------------------------------------------------

 -------------------------------------------------------------------------------
 -                                                                             -
 -                                DBM STATISTICS                               -
 -                                                                             -
 -------------------------------------------------------------------------------
    M  x    N  x    K                                          COUNT     PERCENT
 -------------------------------------------------------------------------------

 -------------------------------------------------------------------------------
 -                                                                             -
 -                                GRID STATISTICS                              -
 -                                                                             -
 -------------------------------------------------------------------------------
 LP    KERNEL             BACKEND                              COUNT     PERCENT
 4     collocate ortho    REF                                4880929      48.27%
 4     integrate ortho    REF                                4788836      47.36%
 0     collocate general  REF                                 195264       1.93%
 0     integrate general  REF                                 173568       1.72%
 3     collocate ortho    REF                                  31376       0.31%
 3     integrate ortho    REF                                  30784       0.30%
 2     collocate ortho    REF                                   5883       0.06%
 2     integrate ortho    REF                                   5772       0.06%
 -------------------------------------------------------------------------------

 MEMORY| Estimated peak process memory [MiB]                                 585

 -------------------------------------------------------------------------------
 ----                             MULTIGRID INFO                            ----
 -------------------------------------------------------------------------------
 count for grid        1:         246065          cutoff [a.u.]          300.00
 count for grid        2:         261357          cutoff [a.u.]          100.00
 count for grid        3:         166074          cutoff [a.u.]           33.33
 count for grid        4:         133540          cutoff [a.u.]           11.11
 total gridlevel count  :         807036

 -------------------------------------------------------------------------------
 -                                                                             -
 -                         MESSAGE PASSING PERFORMANCE                         -
 -                                                                             -
 -------------------------------------------------------------------------------

 ROUTINE             CALLS      AVE VOLUME [Bytes]
 MP_Group                5
 MP_Bcast            11507                  64283.
 MP_Allreduce         2964                   1173.
 MP_Sync               634
 MP_Alltoall          1689              210074128.
 MP_ISendRecv        40110                  11856.
 MP_Wait             51218
 MP_ISend            20665                  59296.
 MP_IRecv            20931                  58821.
 MP_Recv              3255                 258304.
 MP_Write_All            2                 667392.
 -------------------------------------------------------------------------------


 -------------------------------------------------------------------------------
 -                                                                             -
 -                           R E F E R E N C E S                               -
 -                                                                             -
 -------------------------------------------------------------------------------
 
 CP2K version 2022.1 (Development Version), the CP2K developers group (2022).
 CP2K is freely available from https://www.cp2k.org/ .

 Kuehne,Thomas D.; Iannuzzi,Marcella; Del Ben,Mauro;
 Rybkin,Vladimir V.; Seewald,Patrick; Stein,Frederick; Laino,Teodoro;
 Khaliullin,Rustam Z.; Schuett,Ole; Schiffmann,Florian; Golze,Dorothea;
 Wilhelm,Jan; Chulkov,Sergey; Bani-Hashemian,Mohammad Hossein;
 Weber,Valery; Borstnik,Urban; Taillefumier,Mathieu;
 Jakobovits,Alice Shoshana; Lazzaro,Alfio; Pabst,Hans; Mueller,Tiziano;
 Schade,Robert; Guidon,Manuel; Andermatt,Samuel; Holmberg,Nico;
 Schenter,Gregory K.; Hehn,Anna; Bussy,Augustin; Belleflamme,Fabian;
 Tabacchi,Gloria; Gloess,Andreas; Lass,Michael; Bethune,Iain;
 Mundy,Christopher J.; Plessl,Christian; Watkins,Matt;
 VandeVondele,Joost; Krack,Matthias; Hutter,Juerg. 
 The Journal of Chemical Physics, 152 (19), (2020). 
 CP2K: An electronic structure and molecular dynamics software package -
 Quickstep: Efficient and accurate electronic structure calculations.
 https://doi.org/10.1063/5.0007045

 Schuett, Ole; Messmer, Peter; Hutter, Juerg; VandeVondele, Joost. 
 Electronic Structure Calculations on Graphics Processing Units, John
 Wiley & Sons, Ltd, 173-190 (2016). 
 GPU-Accelerated Sparse Matrix-Matrix Multiplication for
 Linear Scaling Density Functional Theory.
 https://doi.org/10.1002/9781118670712.ch8

 Borstnik, U; VandeVondele, J; Weber, V; Hutter, J. 
 PARALLEL COMPUTING, 40 (5-6), 47-58 (2014). 
 Sparse matrix multiplication: The distributed block-compressed sparse
 row library.
 https://doi.org/10.1016/j.parco.2014.03.012

 Hutter, J; Iannuzzi, M; Schiffmann, F; VandeVondele, J. 
 WIREs Comput Mol Sci., 4 (1), 15-25 (2014). 
 CP2K: atomistic simulations of condensed matter systems.
 https://doi.org/10.1002/wcms.1159

 Marek, A; Blum, V; Johanni, R; Havu, V; Lang, B; Auckenthaler, T;
 Heinecke, A; Bungartz, H; Lederer, H. 
 Journal of Physics: Condensed Matter, 26 (21), (2014). 
 The ELPA library: scalable parallel eigenvalue solutions for
 electronic structure
 theory and computational science.
 https://doi.org/10.1088/0953-8984/26/21/213201

 VandeVondele, J; Hutter, J. 
 JOURNAL OF CHEMICAL PHYSICS, 127 (11), 114105 (2007). 
 Gaussian basis sets for accurate calculations on molecular systems in
 gas and condensed phases.
 https://doi.org/10.1063/1.2770708

 Krack, M. 
 THEORETICAL CHEMISTRY ACCOUNTS, 114 (1-3), 145-152 (2005). 
 Pseudopotentials for H to Kr optimized for gradient-corrected
 exchange-correlation functionals.
 https://doi.org/10.1007/s00214-005-0655-y

 VandeVondele, J; Krack, M; Mohamed, F; Parrinello, M; Chassaing, T;
 Hutter, J. COMPUTER PHYSICS COMMUNICATIONS, 167 (2), 103-128 (2005). 
 QUICKSTEP: Fast and accurate density functional calculations using a
 mixed Gaussian and plane waves approach.
 https://doi.org/10.1016/j.cpc.2004.12.014

 Frigo, M; Johnson, SG. 
 PROCEEDINGS OF THE IEEE, 93 (2), 216-231 (2005). 
 The design and implementation of FFTW3.
 https://doi.org/10.1109/JPROC.2004.840301

 Hartwigsen, C; Goedecker, S; Hutter, J. 
 PHYSICAL REVIEW B, 58 (7), 3641-3662 (1998). 
 Relativistic separable dual-space Gaussian pseudopotentials from H to Rn.
 https://doi.org/10.1103/PhysRevB.58.3641

 Lippert, G; Hutter, J; Parrinello, M. 
 MOLECULAR PHYSICS, 92 (3), 477-487 (1997). 
 A hybrid Gaussian and plane wave density functional scheme.
 https://doi.org/10.1080/002689797170220

 Perdew, JP; Burke, K; Ernzerhof, M. 
 PHYSICAL REVIEW LETTERS, 77 (18), 3865-3868 (1996). 
 Generalized gradient approximation made simple.
 https://doi.org/10.1103/PhysRevLett.77.3865

 Goedecker, S; Teter, M; Hutter, J. 
 PHYSICAL REVIEW B, 54 (3), 1703-1710 (1996). 
 Separable dual-space Gaussian pseudopotentials.
 https://doi.org/10.1103/PhysRevB.54.1703


 -------------------------------------------------------------------------------
 -                                                                             -
 -                                T I M I N G                                  -
 -                                                                             -
 -------------------------------------------------------------------------------
 SUBROUTINE                       CALLS  ASD         SELF TIME        TOTAL TIME
                                MAXIMUM       AVERAGE  MAXIMUM  AVERAGE  MAXIMUM
 CP2K                                 1  1.0    0.019    0.040  383.456  383.458
 qs_energies                          1  2.0    0.001    0.002  383.237  383.239
 run_smeagol_emtrans                 53  5.9  365.065  365.840  368.077  368.169
 scf_env_do_scf                       1  3.0    0.000    0.001  297.640  297.651
 scf_env_do_scf_inner_loop           52  4.0    0.006    0.173  297.639  297.651
 qs_scf_new_mos_kp                   52  5.0    0.001    0.001  288.633  288.725
 -------------------------------------------------------------------------------

 The number of warnings for this run is : 1
 
 -------------------------------------------------------------------------------
  **** **** ******  **  PROGRAM ENDED AT                 2023-11-06 16:00:30.482
 ***** ** ***  *** **   PROGRAM RAN ON                                 nid004232
 **    ****   ******    PROGRAM RAN BY                                    cahart
 ***** **    ** ** **   PROGRAM PROCESS ID                                 88924
  **** **  *******  **  PROGRAM STOPPED IN /mnt/lustre/a2fs-work2/work/e05/e05/c
                                           ahart/postdoc/transport/cp2k-smeagol-
                                           examples/au-h2/cp2k-smeagol/transmiss
                                           ion/kpoints-3-3-20_omp-4_ParallelOver
                                           KNum-3_contour-single
