 DBCSR| CPU Multiplication driver                                           BLAS
 DBCSR| Multrec recursion limit                                              512
 DBCSR| Multiplication stack size                                           1000
 DBCSR| Maximum elements for images                                    UNLIMITED
 DBCSR| Multiplicative factor virtual images                                   1
 DBCSR| Use multiplication densification                                       T
 DBCSR| Multiplication size stacks                                             3
 DBCSR| Use memory pool for CPU allocation                                     F
 DBCSR| Number of 3D layers                                               SINGLE
 DBCSR| Use MPI memory allocation                                              F
 DBCSR| Use RMA algorithm                                                      F
 DBCSR| Use Communication thread                                               T
 DBCSR| Communication thread load                                             83
 DBCSR| MPI: My node id                                                        0
 DBCSR| MPI: Number of nodes                                                  64
 DBCSR| OMP: Current number of threads                                         2
 DBCSR| OMP: Max number of threads                                             2
 DBCSR| Split modifier for TAS multiplication algorithm                  1.0E+00


  **** **** ******  **  PROGRAM STARTED AT               2023-10-30 16:24:58.254
 ***** ** ***  *** **   PROGRAM STARTED ON                             nid005595
 **    ****   ******    PROGRAM STARTED BY                                cahart
 ***** **    ** ** **   PROGRAM PROCESS ID                                248538
  **** **  *******  **  PROGRAM STARTED IN /mnt/lustre/a2fs-work2/work/e05/e05/c
                                           ahart/postdoc/transport/au-wire/arche
                                           r2/energy_force/kpoints-2-2-20_constr
                                           ained_energy-density-T_contour-double

 CP2K| version string:                 CP2K version 2022.1 (Development Version)
 CP2K| source code revision number:                                  git:3a6d0d5
 CP2K| cp2kflags: omp libint fftw3 libxc elpa parallel mpi3 scalapack mkl       
 CP2K| is freely available from                            https://www.cp2k.org/
 CP2K| Program compiled at                       Fri 27 Oct 2023 12:12:14 PM BST
 CP2K| Program compiled on                                                  ln01
 CP2K| Program compiled for                                                local
 CP2K| Data directory path    /work/e05/e05/cahart/smeagol/smgl/cp2k-private-ser
 CP2K| Input file name                                              1_bulkLR.inp

 GLOBAL| Force Environment number                                              1
 GLOBAL| Basis set file name                                        BASIS_MOLOPT
 GLOBAL| Potential file name                                      GTH_POTENTIALS
 GLOBAL| MM Potential file name                                     MM_POTENTIAL
 GLOBAL| Coordinate file name                                           bulk.xyz
 GLOBAL| Method name                                                        CP2K
 GLOBAL| Project name                                                       bulk
 GLOBAL| Run type                                                         ENERGY
 GLOBAL| FFT library                                                       FFTW3
 GLOBAL| Diagonalization library                                            ELPA
 GLOBAL| Minimum number of eigenvectors for ELPA usage                        16
 GLOBAL| Orthonormality check for eigenvectors                          DISABLED
 GLOBAL| Matrix multiplication library                                 ScaLAPACK
 GLOBAL| All-to-all communication in single precision                          F
 GLOBAL| FFTs using library dependent lengths                                  T
 GLOBAL| Grid backend                                                       AUTO
 GLOBAL| Global print level                                               MEDIUM
 GLOBAL| MPI I/O enabled                                                       T
 GLOBAL| Total number of message passing processes                            64
 GLOBAL| Number of threads for this process                                    2
 GLOBAL| This output is from process                                           0
 GLOBAL| Stack size for threads created by OpenMP (OMP_STACKSIZE)        default
 GLOBAL| CPU model name                          AMD EPYC 7742 64-Core Processor
 GLOBAL| CPUID                                                              1002

 MEMORY| system memory details [Kb]
 MEMORY|                        rank 0           min           max       average
 MEMORY| MemTotal            263341976     263341976     263341976     263341976
 MEMORY| MemFree             245827040     245827040     245827288     245827144
 MEMORY| Buffers                     0             0             0             0
 MEMORY| Cached                1498120       1498120       1498120       1498120
 MEMORY| Slab                  2888612       2888560       2888612       2888591
 MEMORY| SReclaimable           111276        111276        111276        111276
 MEMORY| MemLikelyFree       247436436     247436436     247436684     247436540


 *** Fundamental physical constants (SI units) ***

 *** Literature: B. J. Mohr and B. N. Taylor,
 ***             CODATA recommended values of the fundamental physical
 ***             constants: 2006, Web Version 5.1
 ***             http://physics.nist.gov/constants

 Speed of light in vacuum [m/s]                             2.99792458000000E+08
 Magnetic constant or permeability of vacuum [N/A**2]       1.25663706143592E-06
 Electric constant or permittivity of vacuum [F/m]          8.85418781762039E-12
 Planck constant (h) [J*s]                                  6.62606896000000E-34
 Planck constant (h-bar) [J*s]                              1.05457162825177E-34
 Elementary charge [C]                                      1.60217648700000E-19
 Electron mass [kg]                                         9.10938215000000E-31
 Electron g factor [ ]                                     -2.00231930436220E+00
 Proton mass [kg]                                           1.67262163700000E-27
 Fine-structure constant                                    7.29735253760000E-03
 Rydberg constant [1/m]                                     1.09737315685270E+07
 Avogadro constant [1/mol]                                  6.02214179000000E+23
 Boltzmann constant [J/K]                                   1.38065040000000E-23
 Atomic mass unit [kg]                                      1.66053878200000E-27
 Bohr radius [m]                                            5.29177208590000E-11

 *** Conversion factors ***

 [u] -> [a.u.]                                              1.82288848426455E+03
 [Angstrom] -> [Bohr] = [a.u.]                              1.88972613288564E+00
 [a.u.] = [Bohr] -> [Angstrom]                              5.29177208590000E-01
 [a.u.] -> [s]                                              2.41888432650478E-17
 [a.u.] -> [fs]                                             2.41888432650478E-02
 [a.u.] -> [J]                                              4.35974393937059E-18
 [a.u.] -> [N]                                              8.23872205491840E-08
 [a.u.] -> [K]                                              3.15774647902944E+05
 [a.u.] -> [kJ/mol]                                         2.62549961709828E+03
 [a.u.] -> [kcal/mol]                                       6.27509468713739E+02
 [a.u.] -> [Pa]                                             2.94210107994716E+13
 [a.u.] -> [bar]                                            2.94210107994716E+08
 [a.u.] -> [atm]                                            2.90362800883016E+08
 [a.u.] -> [eV]                                             2.72113838565563E+01
 [a.u.] -> [Hz]                                             6.57968392072181E+15
 [a.u.] -> [1/cm] (wave numbers)                            2.19474631370540E+05
 [a.u./Bohr**2] -> [1/cm]                                   5.14048714338585E+03
 

 CELL_TOP| Volume [angstrom^3]:                                       592.704000
 CELL_TOP| Vector a [angstrom     8.400     0.000     0.000   |a| =     8.400000
 CELL_TOP| Vector b [angstrom     0.000     8.400     0.000   |b| =     8.400000
 CELL_TOP| Vector c [angstrom     0.000     0.000     8.400   |c| =     8.400000
 CELL_TOP| Angle (b,c), alpha [degree]:                                90.000000
 CELL_TOP| Angle (a,c), beta  [degree]:                                90.000000
 CELL_TOP| Angle (a,b), gamma [degree]:                                90.000000
 CELL_TOP| Numerically orthorhombic:                                         YES
 CELL_TOP| Periodicity                                                       XYZ

 GENERATE|  Preliminary Number of Bonds generated:                             0
 GENERATE|  Achieved consistency in connectivity generation.

 CELL| Volume [angstrom^3]:                                           592.704000
 CELL| Vector a [angstrom]:       8.400     0.000     0.000   |a| =     8.400000
 CELL| Vector b [angstrom]:       0.000     8.400     0.000   |b| =     8.400000
 CELL| Vector c [angstrom]:       0.000     0.000     8.400   |c| =     8.400000
 CELL| Angle (b,c), alpha [degree]:                                    90.000000
 CELL| Angle (a,c), beta  [degree]:                                    90.000000
 CELL| Angle (a,b), gamma [degree]:                                    90.000000
 CELL| Numerically orthorhombic:                                             YES
 CELL| Periodicity                                                           XYZ

 CELL_REF| Volume [angstrom^3]:                                       592.704000
 CELL_REF| Vector a [angstrom     8.400     0.000     0.000   |a| =     8.400000
 CELL_REF| Vector b [angstrom     0.000     8.400     0.000   |b| =     8.400000
 CELL_REF| Vector c [angstrom     0.000     0.000     8.400   |c| =     8.400000
 CELL_REF| Angle (b,c), alpha [degree]:                                90.000000
 CELL_REF| Angle (a,c), beta  [degree]:                                90.000000
 CELL_REF| Angle (a,b), gamma [degree]:                                90.000000
 CELL_REF| Numerically orthorhombic:                                         YES
 CELL_REF| Periodicity                                                       XYZ

 *** WARNING in cryssym.F:165 :: Symmetry library SPGLIB not available ***


 *******************************************************************************
                                    Kpoints
 *******************************************************************************
 BRILLOUIN| K-point scheme                                        Monkhorst-Pack
 BRILLOUIN| K-Point grid                                             2    2   20
 BRILLOUIN| Accuracy in Symmetry determination                      0.100000E-07
 BRILLOUIN| K-Point point group symmetrization                               OFF
 BRILLOUIN| Wavefunction type                                            COMPLEX
 BRILLOUIN| Use full k-point grid     
 BRILLOUIN| List of Kpoints [2 Pi/Bohr]                                       80
 BRILLOUIN| Number           Weight            X              Y              Z
 BRILLOUIN|     1           0.01250       -0.25000       -0.25000       -0.47500
 BRILLOUIN|     2           0.01250       -0.25000       -0.25000       -0.42500
 BRILLOUIN|     3           0.01250       -0.25000       -0.25000       -0.37500
 BRILLOUIN|     4           0.01250       -0.25000       -0.25000       -0.32500
 BRILLOUIN|     5           0.01250       -0.25000       -0.25000       -0.27500
 BRILLOUIN|     6           0.01250       -0.25000       -0.25000       -0.22500
 BRILLOUIN|     7           0.01250       -0.25000       -0.25000       -0.17500
 BRILLOUIN|     8           0.01250       -0.25000       -0.25000       -0.12500
 BRILLOUIN|     9           0.01250       -0.25000       -0.25000       -0.07500
 BRILLOUIN|    10           0.01250       -0.25000       -0.25000       -0.02500
 BRILLOUIN|    11           0.01250       -0.25000       -0.25000        0.02500
 BRILLOUIN|    12           0.01250       -0.25000       -0.25000        0.07500
 BRILLOUIN|    13           0.01250       -0.25000       -0.25000        0.12500
 BRILLOUIN|    14           0.01250       -0.25000       -0.25000        0.17500
 BRILLOUIN|    15           0.01250       -0.25000       -0.25000        0.22500
 BRILLOUIN|    16           0.01250       -0.25000       -0.25000        0.27500
 BRILLOUIN|    17           0.01250       -0.25000       -0.25000        0.32500
 BRILLOUIN|    18           0.01250       -0.25000       -0.25000        0.37500
 BRILLOUIN|    19           0.01250       -0.25000       -0.25000        0.42500
 BRILLOUIN|    20           0.01250       -0.25000       -0.25000        0.47500
 BRILLOUIN|    21           0.01250       -0.25000        0.25000       -0.47500
 BRILLOUIN|    22           0.01250       -0.25000        0.25000       -0.42500
 BRILLOUIN|    23           0.01250       -0.25000        0.25000       -0.37500
 BRILLOUIN|    24           0.01250       -0.25000        0.25000       -0.32500
 BRILLOUIN|    25           0.01250       -0.25000        0.25000       -0.27500
 BRILLOUIN|    26           0.01250       -0.25000        0.25000       -0.22500
 BRILLOUIN|    27           0.01250       -0.25000        0.25000       -0.17500
 BRILLOUIN|    28           0.01250       -0.25000        0.25000       -0.12500
 BRILLOUIN|    29           0.01250       -0.25000        0.25000       -0.07500
 BRILLOUIN|    30           0.01250       -0.25000        0.25000       -0.02500
 BRILLOUIN|    31           0.01250       -0.25000        0.25000        0.02500
 BRILLOUIN|    32           0.01250       -0.25000        0.25000        0.07500
 BRILLOUIN|    33           0.01250       -0.25000        0.25000        0.12500
 BRILLOUIN|    34           0.01250       -0.25000        0.25000        0.17500
 BRILLOUIN|    35           0.01250       -0.25000        0.25000        0.22500
 BRILLOUIN|    36           0.01250       -0.25000        0.25000        0.27500
 BRILLOUIN|    37           0.01250       -0.25000        0.25000        0.32500
 BRILLOUIN|    38           0.01250       -0.25000        0.25000        0.37500
 BRILLOUIN|    39           0.01250       -0.25000        0.25000        0.42500
 BRILLOUIN|    40           0.01250       -0.25000        0.25000        0.47500
 BRILLOUIN|    41           0.01250        0.25000       -0.25000       -0.47500
 BRILLOUIN|    42           0.01250        0.25000       -0.25000       -0.42500
 BRILLOUIN|    43           0.01250        0.25000       -0.25000       -0.37500
 BRILLOUIN|    44           0.01250        0.25000       -0.25000       -0.32500
 BRILLOUIN|    45           0.01250        0.25000       -0.25000       -0.27500
 BRILLOUIN|    46           0.01250        0.25000       -0.25000       -0.22500
 BRILLOUIN|    47           0.01250        0.25000       -0.25000       -0.17500
 BRILLOUIN|    48           0.01250        0.25000       -0.25000       -0.12500
 BRILLOUIN|    49           0.01250        0.25000       -0.25000       -0.07500
 BRILLOUIN|    50           0.01250        0.25000       -0.25000       -0.02500
 BRILLOUIN|    51           0.01250        0.25000       -0.25000        0.02500
 BRILLOUIN|    52           0.01250        0.25000       -0.25000        0.07500
 BRILLOUIN|    53           0.01250        0.25000       -0.25000        0.12500
 BRILLOUIN|    54           0.01250        0.25000       -0.25000        0.17500
 BRILLOUIN|    55           0.01250        0.25000       -0.25000        0.22500
 BRILLOUIN|    56           0.01250        0.25000       -0.25000        0.27500
 BRILLOUIN|    57           0.01250        0.25000       -0.25000        0.32500
 BRILLOUIN|    58           0.01250        0.25000       -0.25000        0.37500
 BRILLOUIN|    59           0.01250        0.25000       -0.25000        0.42500
 BRILLOUIN|    60           0.01250        0.25000       -0.25000        0.47500
 BRILLOUIN|    61           0.01250        0.25000        0.25000       -0.47500
 BRILLOUIN|    62           0.01250        0.25000        0.25000       -0.42500
 BRILLOUIN|    63           0.01250        0.25000        0.25000       -0.37500
 BRILLOUIN|    64           0.01250        0.25000        0.25000       -0.32500
 BRILLOUIN|    65           0.01250        0.25000        0.25000       -0.27500
 BRILLOUIN|    66           0.01250        0.25000        0.25000       -0.22500
 BRILLOUIN|    67           0.01250        0.25000        0.25000       -0.17500
 BRILLOUIN|    68           0.01250        0.25000        0.25000       -0.12500
 BRILLOUIN|    69           0.01250        0.25000        0.25000       -0.07500
 BRILLOUIN|    70           0.01250        0.25000        0.25000       -0.02500
 BRILLOUIN|    71           0.01250        0.25000        0.25000        0.02500
 BRILLOUIN|    72           0.01250        0.25000        0.25000        0.07500
 BRILLOUIN|    73           0.01250        0.25000        0.25000        0.12500
 BRILLOUIN|    74           0.01250        0.25000        0.25000        0.17500
 BRILLOUIN|    75           0.01250        0.25000        0.25000        0.22500
 BRILLOUIN|    76           0.01250        0.25000        0.25000        0.27500
 BRILLOUIN|    77           0.01250        0.25000        0.25000        0.32500
 BRILLOUIN|    78           0.01250        0.25000        0.25000        0.37500
 BRILLOUIN|    79           0.01250        0.25000        0.25000        0.42500
 BRILLOUIN|    80           0.01250        0.25000        0.25000        0.47500
 *******************************************************************************

 *******************************************************************************
 *******************************************************************************
 **                                                                           **
 **     #####                         ##              ##                      **
 **    ##   ##            ##          ##              ##                      **
 **   ##     ##                       ##            ######                    **
 **   ##     ##  ##   ##  ##   #####  ##  ##   ####   ##    #####    #####    **
 **   ##     ##  ##   ##  ##  ##      ## ##   ##      ##   ##   ##  ##   ##   **
 **   ##  ## ##  ##   ##  ##  ##      ####     ###    ##   ######   ######    **
 **    ##  ###   ##   ##  ##  ##      ## ##      ##   ##   ##       ##        **
 **     #######   #####   ##   #####  ##  ##  ####    ##    #####   ##        **
 **           ##                                                    ##        **
 **                                                                           **
 **                                                ... make the atoms dance   **
 **                                                                           **
 **            Copyright (C) by CP2K developers group (2000-2022)             **
 **                      J. Chem. Phys. 152, 194103 (2020)                    **
 **                                                                           **
 *******************************************************************************

 *** WARNING in qs_environment.F:1468 :: More added MOs requested than     ***
 *** available. The full set of unoccupied MOs will be used. Use           ***
 *** 'ADDED_MOS -1' to always use all available MOs and to get rid of this ***
 *** warning.                                                              ***


 DFT| Spin restricted Kohn-Sham (RKS) calculation                            RKS
 DFT| Multiplicity                                                             2
 DFT| Number of spin states                                                    1
 DFT| Charge                                                                   0
 DFT| Self-interaction correction (SIC)                                       NO
 DFT| Cutoffs: density                                              1.000000E-10
 DFT|          gradient                                             1.000000E-10
 DFT|          tau                                                  1.000000E-10
 DFT|          cutoff_smoothing_range                               0.000000E+00
 DFT| XC density smoothing                                                  NONE
 DFT| XC derivatives                                                          PW

 FUNCTIONAL| PADE:
 FUNCTIONAL| S. Goedecker, M. Teter and J. Hutter, Phys. Rev. B 54, 1703 (1996) 


 QS| Method:                                                                 GPW
 QS| Density plane wave grid type                        NON-SPHERICAL FULLSPACE
 QS| Number of grid levels:                                                    4
 QS| Density cutoff [a.u.]:                                                200.0
 QS| Multi grid cutoff [a.u.]: 1) grid level                               200.0
 QS|                           2) grid level                                66.7
 QS|                           3) grid level                                22.2
 QS|                           4) grid level                                 7.4
 QS| Grid level progression factor:                                          3.0
 QS| Relative density cutoff [a.u.]:                                        20.0
 QS| Interaction thresholds: eps_pgf_orb:                                1.0E-05
 QS|                         eps_filter_matrix:                          0.0E+00
 QS|                         eps_core_charge:                            1.0E-12
 QS|                         eps_rho_gspace:                             1.0E-10
 QS|                         eps_rho_rspace:                             1.0E-10
 QS|                         eps_gvg_rspace:                             1.0E-05
 QS|                         eps_ppl:                                    1.0E-02
 QS|                         eps_ppnl:                                   1.0E-07


 ATOMIC KIND INFORMATION

  1. Atomic kind: Au                                    Number of atoms:       3

     Orbital Basis Set                                         SZV-MOLOPT-SR-GTH

       Number of orbital shell sets:                                           1
       Number of orbital shells:                                               3
       Number of primitive Cartesian functions:                                5
       Number of Cartesian basis functions:                                   10
       Number of spherical basis functions:                                    9
       Norm type:                                                              2

       Normalised Cartesian orbitals:

                        Set   Shell   Orbital            Exponent    Coefficient

                          1       1    2s                2.950008       0.074626
                                                         1.563057      -0.007898
                                                         0.666664      -0.297688
                                                         0.251083       0.136809
                                                         0.081714       0.088198

                          1       2    3px               2.950008       0.148824
                                                         1.563057       0.025430
                                                         0.666664      -0.123003
                                                         0.251083       0.033648
                                                         0.081714       0.059008
                          1       2    3py               2.950008       0.148824
                                                         1.563057       0.025430
                                                         0.666664      -0.123003
                                                         0.251083       0.033648
                                                         0.081714       0.059008
                          1       2    3pz               2.950008       0.148824
                                                         1.563057       0.025430
                                                         0.666664      -0.123003
                                                         0.251083       0.033648
                                                         0.081714       0.059008

                          1       3    4dx2              2.950008      -0.139595
                                                         1.563057       1.319655
                                                         0.666664       0.377081
                                                         0.251083       0.046872
                                                         0.081714       0.001393
                          1       3    4dxy              2.950008      -0.241786
                                                         1.563057       2.285709
                                                         0.666664       0.653124
                                                         0.251083       0.081185
                                                         0.081714       0.002412
                          1       3    4dxz              2.950008      -0.241786
                                                         1.563057       2.285709
                                                         0.666664       0.653124
                                                         0.251083       0.081185
                                                         0.081714       0.002412
                          1       3    4dy2              2.950008      -0.139595
                                                         1.563057       1.319655
                                                         0.666664       0.377081
                                                         0.251083       0.046872
                                                         0.081714       0.001393
                          1       3    4dyz              2.950008      -0.241786
                                                         1.563057       2.285709
                                                         0.666664       0.653124
                                                         0.251083       0.081185
                                                         0.081714       0.002412
                          1       3    4dz2              2.950008      -0.139595
                                                         1.563057       1.319655
                                                         0.666664       0.377081
                                                         0.251083       0.046872
                                                         0.081714       0.001393

       Atomic covalent radius [Angstrom]:                                  1.340

       Atomic van der Waals radius [Angstrom]:                             1.660

     GTH Potential information for                                  GTH-PADE-q11

       Description:                       Goedecker-Teter-Hutter pseudopotential
                                           Goedecker et al., PRB 54, 1703 (1996)
                                          Hartwigsen et al., PRB 58, 3641 (1998)
                                                      Krack, TCA 114, 145 (2005)

       Gaussian exponent of the core charge distribution:               1.436369
       Electronic configuration (s p d ...):                           1   0  10

       Parameters of the local part of the GTH pseudopotential:

                          rloc        C1          C2          C3          C4
                        0.590000   11.604428

       Parameters of the non-local part of the GTH pseudopotential:

                   l      r(l)      h(i,j,l)

                   0    0.521180    2.538614   -1.046137
                                   -1.046137    2.701113
                   1    0.630613    0.394853   -0.869592
                                   -0.869592    2.057831
                   2    0.440706   -4.719070    0.727771
                                    0.727771   -1.650429


 MOLECULE KIND INFORMATION


 All atoms are their own molecule, skipping detailed information


 TOTAL NUMBERS AND MAXIMUM NUMBERS

  Total number of            - Atomic kinds:                                   1
                             - Atoms:                                          3
                             - Shell sets:                                     3
                             - Shells:                                         9
                             - Primitive Cartesian functions:                 15
                             - Cartesian basis functions:                     30
                             - Spherical basis functions:                     27

  Maximum angular momentum of- Orbital basis functions:                        2
                             - Local part of the GTH pseudopotential:          0
                             - Non-local part of the GTH pseudopotential:      4


 MODULE QUICKSTEP: ATOMIC COORDINATES IN ANGSTROM

   Atom Kind Element         X             Y             Z       Z(eff)     Mass
      1    1 Au   79      4.200000      4.200000      1.400000  11.0000 196.9666
      2    1 Au   79      4.200000      4.200000      4.200000  11.0000 196.9666
      3    1 Au   79      4.200000      4.200000      7.000000  11.0000 196.9666



 SCF PARAMETERS         Density guess:                                    ATOMIC
                        --------------------------------------------------------
                        max_scf:                                             100
                        max_scf_history:                                       0
                        max_diis:                                              4
                        --------------------------------------------------------
                        eps_scf:                                        1.00E-08
                        eps_scf_history:                                0.00E+00
                        eps_diis:                                       1.00E-01
                        eps_eigval:                                     1.00E-05
                        --------------------------------------------------------
                        level_shift [a.u.]:                             0.000000
                        added MOs                                        10    0
                        --------------------------------------------------------
                        Mixing method:                            BROYDEN_MIXING
                                                charge density mixing in g-space
                        --------------------------------------------------------
                        Smear method:                                FERMI_DIRAC
                        Electronic temperature [K]:                        293.0
                        Electronic temperature [a.u.]:                  9.28E-04
                        Accuracy threshold:                             1.00E-10
                        --------------------------------------------------------
                        No outer SCF

 PW_GRID| Information for grid number                                          1
 PW_GRID| Grid distributed over                                    64 processors
 PW_GRID| Real space group dimensions                                    64    1
 PW_GRID| the grid is blocked:                                                NO
 PW_GRID| Cutoff [a.u.]                                                    200.0
 PW_GRID| spherical cutoff:                                                   NO
 PW_GRID|   Bounds   1            -52      52                Points:         105
 PW_GRID|   Bounds   2            -52      52                Points:         105
 PW_GRID|   Bounds   3            -52      52                Points:         105
 PW_GRID| Volume element (a.u.^3)  0.3455E-02     Volume (a.u.^3)      3999.7649
 PW_GRID| Grid span                                                    FULLSPACE
 PW_GRID|   Distribution                         Average         Max         Min
 PW_GRID|   G-Vectors                            18087.9       18165       18060
 PW_GRID|   G-Rays                                 172.3         173         172
 PW_GRID|   Real Space Points                    18087.9       22050       11025

 PW_GRID| Information for grid number                                          2
 PW_GRID| Number of the reference grid                                         1
 PW_GRID| Grid distributed over                                    64 processors
 PW_GRID| Real space group dimensions                                     8    8
 PW_GRID| the grid is blocked:                                                NO
 PW_GRID| Cutoff [a.u.]                                                     66.7
 PW_GRID| spherical cutoff:                                                   NO
 PW_GRID|   Bounds   1            -30      29                Points:          60
 PW_GRID|   Bounds   2            -30      29                Points:          60
 PW_GRID|   Bounds   3            -30      29                Points:          60
 PW_GRID| Volume element (a.u.^3)  0.1852E-01     Volume (a.u.^3)      3999.7649
 PW_GRID| Grid span                                                    FULLSPACE
 PW_GRID|   Distribution                         Average         Max         Min
 PW_GRID|   G-Vectors                             3375.0        3540        3240
 PW_GRID|   G-Rays                                  56.2          59          54
 PW_GRID|   Real Space Points                     3375.0        3840        2940

 PW_GRID| Information for grid number                                          3
 PW_GRID| Number of the reference grid                                         1
 PW_GRID| Grid distributed over                                    64 processors
 PW_GRID| Real space group dimensions                                     8    8
 PW_GRID| the grid is blocked:                                                NO
 PW_GRID| Cutoff [a.u.]                                                     22.2
 PW_GRID| spherical cutoff:                                                   NO
 PW_GRID|   Bounds   1            -16      16                Points:          33
 PW_GRID|   Bounds   2            -16      16                Points:          33
 PW_GRID|   Bounds   3            -16      16                Points:          33
 PW_GRID| Volume element (a.u.^3)  0.1113         Volume (a.u.^3)      3999.7649
 PW_GRID| Grid span                                                    FULLSPACE
 PW_GRID|   Distribution                         Average         Max         Min
 PW_GRID|   G-Vectors                              561.5         660         495
 PW_GRID|   G-Rays                                  17.0          20          15
 PW_GRID|   Real Space Points                      561.5         825         528

 PW_GRID| Information for grid number                                          4
 PW_GRID| Number of the reference grid                                         1
 PW_GRID| Grid distributed over                                    64 processors
 PW_GRID| Real space group dimensions                                     8    8
 PW_GRID| the grid is blocked:                                                NO
 PW_GRID| Cutoff [a.u.]                                                      7.4
 PW_GRID| spherical cutoff:                                                   NO
 PW_GRID|   Bounds   1            -10       9                Points:          20
 PW_GRID|   Bounds   2            -10       9                Points:          20
 PW_GRID|   Bounds   3            -10       9                Points:          20
 PW_GRID| Volume element (a.u.^3)  0.5000         Volume (a.u.^3)      3999.7649
 PW_GRID| Grid span                                                    FULLSPACE
 PW_GRID|   Distribution                         Average         Max         Min
 PW_GRID|   G-Vectors                              125.0         140         100
 PW_GRID|   G-Rays                                   6.2           7           5
 PW_GRID|   Real Space Points                      125.0         180          80

 POISSON| Solver                                                        PERIODIC
 POISSON| Periodicity                                                        XYZ

 RS_GRID| Information for grid number                                          1
 RS_GRID|   Bounds   1            -52      52                Points:         105
 RS_GRID|   Bounds   2            -52      52                Points:         105
 RS_GRID|   Bounds   3            -52      52                Points:         105
 RS_GRID| Real space distribution over                                  8 groups
 RS_GRID| Real space distribution along direction                              2
 RS_GRID| Border size                                                         30
 RS_GRID| Real space distribution over                                  8 groups
 RS_GRID| Real space distribution along direction                              3
 RS_GRID| Border size                                                         30
 RS_GRID|   Distribution                         Average         Max         Min
 RS_GRID|   Planes                                  73.1          74          73
 RS_GRID|   Distribution                         Average         Max         Min
 RS_GRID|   Planes                                  73.1          74          73

 RS_GRID| Information for grid number                                          2
 RS_GRID|   Bounds   1            -30      29                Points:          60
 RS_GRID|   Bounds   2            -30      29                Points:          60
 RS_GRID|   Bounds   3            -30      29                Points:          60
 RS_GRID| Real space fully replicated
 RS_GRID| Group size                                                           1

 RS_GRID| Information for grid number                                          3
 RS_GRID|   Bounds   1            -16      16                Points:          33
 RS_GRID|   Bounds   2            -16      16                Points:          33
 RS_GRID|   Bounds   3            -16      16                Points:          33
 RS_GRID| Real space fully replicated
 RS_GRID| Group size                                                           1

 RS_GRID| Information for grid number                                          4
 RS_GRID|   Bounds   1            -10       9                Points:          20
 RS_GRID|   Bounds   2            -10       9                Points:          20
 RS_GRID|   Bounds   3            -10       9                Points:          20
 RS_GRID| Real space fully replicated
 RS_GRID| Group size                                                           1

 KPOINTS| Number of kpoint groups                                             16
 KPOINTS| Size of each kpoint group                                            4
 KPOINTS| Number of kpoints per group                                          5

 Number of electrons:                                                         33
 Number of occupied orbitals:                                                 17
 Number of molecular orbitals:                                                27

 Number of orbital functions:                                                 27
 Number of independent orbital functions:                                     27

 Extrapolation method: initial_guess

 Atomic guess: The first density matrix is obtained in terms of atomic orbitals
               and electronic configurations assigned to each atomic kind

 Guess for atomic kind: Au

 Electronic structure
    Total number of core electrons                                         68.00
    Total number of valence electrons                                      11.00
    Total number of electrons                                              79.00
    Multiplicity                                                   not specified
    S   [  2.00  2.00  2.00  2.00  2.00] 1.00
    P   [  6.00  6.00  6.00  6.00]
    D   [ 10.00 10.00]10.00
    F   [ 14.00]


 *******************************************************************************
                  Iteration          Convergence                     Energy [au]
 *******************************************************************************
                          1         0.00000                     -33.033218197848

 Energy components [Hartree]           Total Energy ::          -33.033218197848
                                        Band Energy ::           -1.147505983145
                                     Kinetic Energy ::           24.744064437587
                                   Potential Energy ::          -57.777282635435
                                      Virial (-V/T) ::            2.334995642336
                                        Core Energy ::          -60.197309615488
                                          XC Energy ::           -5.116883226844
                                     Coulomb Energy ::           32.280974644483
                       Total Pseudopotential Energy ::          -85.042885173964
                       Local Pseudopotential Energy ::          -66.341694915099
                    Nonlocal Pseudopotential Energy ::          -18.701190258865
                                        Confinement ::            1.015111208892

 Orbital energies  State     L     Occupation   Energy[a.u.]          Energy[eV]

                       1     0          1.000      -0.213792           -5.817572

                       1     2         10.000      -0.093371           -2.540765


 Total Electron Density at R=0:                                         0.000035
 Re-scaling the density matrix to get the right number of electrons
                  # Electrons              Trace(P)               Scaling factor
                           33                33.000                        1.000


 SCF WAVEFUNCTION OPTIMIZATION

  Step     Update method      Time    Convergence         Total energy    Change
  ------------------------------------------------------------------------------
     1 NoMix/Diag. 0.30E+00    0.4     0.40861970       -99.5264655212 -9.95E+01
     2 Broy./Diag. 0.30E+00    0.3     0.18966510      -101.8281161575 -2.30E+00
     3 Broy./Diag. 0.30E+00    0.3     0.10843434      -100.2343036725  1.59E+00
     4 Broy./Diag. 0.30E+00    0.3     0.00928566       -99.5599611560  6.74E-01
     5 Broy./Diag. 0.30E+00    0.3     0.00654080       -99.6539931802 -9.40E-02
     6 Broy./Diag. 0.30E+00    0.3     0.00030726       -99.6308920970  2.31E-02
     7 Broy./Diag. 0.30E+00    0.3     0.00096816       -99.6265638616  4.33E-03
     8 Broy./Diag. 0.30E+00    0.3     0.00040476       -99.6187419723  7.82E-03
     9 Broy./Diag. 0.30E+00    0.3     0.00027559       -99.6171044703  1.64E-03
    10 Broy./Diag. 0.30E+00    0.3     0.00014090       -99.6160089688  1.10E-03
    11 Broy./Diag. 0.30E+00    0.3     0.00002983       -99.6165118563 -5.03E-04
    12 Broy./Diag. 0.30E+00    0.3     0.00000734       -99.6166147559 -1.03E-04
    13 Broy./Diag. 0.30E+00    0.3     0.00000157       -99.6166382351 -2.35E-05
    14 Broy./Diag. 0.30E+00    0.3     0.00000020       -99.6166424214 -4.19E-06
    15 Broy./Diag. 0.30E+00    0.3     0.00000011       -99.6166410610  1.36E-06
    16 Broy./Diag. 0.30E+00    0.3     0.00000002       -99.6166402962  7.65E-07
    17 Broy./Diag. 0.30E+00    0.3     7.5609E-09       -99.6166401432  1.53E-07

  *** SCF run converged in    17 steps ***


  Electronic density on regular grids:        -32.9999999993        0.0000000007
  Core density on regular grids:               32.9999999948       -0.0000000052
  Total charge density on r-space grids:       -0.0000000045
  Total charge density g-space grids:          -0.0000000045

  Overlap energy of the core charge distribution:               0.00000001561320
  Self energy of the core charge distribution:               -173.56001595579286
  Core Hamiltonian energy:                                     55.43790660268977
  Hartree energy:                                              33.79017537075701
  Exchange-correlation energy:                                -15.28414445648601
  Electronic entropic energy:                                  -0.00056171995909
  Fermi energy:                                                -0.19694935133535

  Total energy:                                               -99.61664014318232

 !-----------------------------------------------------------------------------!
                     Mulliken Population Analysis

 #  Atom  Element  Kind  Atomic population                           Net charge
       1     Au       1         11.000001                             -0.000001
       2     Au       1         10.999997                              0.000003
       3     Au       1         11.000001                             -0.000001
 # Total charge                             33.000000                 -0.000000

 !-----------------------------------------------------------------------------!

 !-----------------------------------------------------------------------------!
                           Hirshfeld Charges

  #Atom  Element  Kind  Ref Charge     Population                    Net charge
      1       Au     1      11.000         11.000                         0.000
      2       Au     1      11.000         11.000                         0.000
      3       Au     1      11.000         11.000                         0.000

  Total Charge                                                            0.000
 !-----------------------------------------------------------------------------!

 BULKTRANSP| E_FERMI [a.u.] =                                  -1.9694935134E-01
 BULKTRANSP| HartreeLeadsBottom [a.u.] =                       -6.2564312406E-02
 BULKTRANSP| Number of electrons:                                  33.0000000052

 ENERGY| Total FORCE_EVAL ( QS ) energy [a.u.]:              -99.616640143182323

 -------------------------------------------------------------------------------
 -                                                                             -
 -                                DBCSR STATISTICS                             -
 -                                                                             -
 -------------------------------------------------------------------------------
 COUNTER                                    TOTAL       BLAS       SMM       ACC
 flops inhomo. stacks                           0       0.0%      0.0%      0.0%
 flops total                         0.000000E+00       0.0%      0.0%      0.0%
 flops max/rank                      0.000000E+00       0.0%      0.0%      0.0%
 matmuls inhomo. stacks                         0       0.0%      0.0%      0.0%
 matmuls total                                  0       0.0%      0.0%      0.0%
 number of processed stacks                     0       0.0%      0.0%      0.0%
 average stack size                                     0.0       0.0       0.0
 marketing flops                     0.000000E+00
 -------------------------------------------------------------------------------
 -                                                                             -
 -                      DBCSR MESSAGE PASSING PERFORMANCE                      -
 -                                                                             -
 -------------------------------------------------------------------------------
 ROUTINE             CALLS      AVE VOLUME [Bytes]
 MP_Bcast                1                     12.
 MP_Allreduce          836                      8.
 MP_Alltoall        112928                  11501.
 -------------------------------------------------------------------------------

 -------------------------------------------------------------------------------
 -                                                                             -
 -                                DBM STATISTICS                               -
 -                                                                             -
 -------------------------------------------------------------------------------
    M  x    N  x    K                                          COUNT     PERCENT
 -------------------------------------------------------------------------------

 -------------------------------------------------------------------------------
 -                                                                             -
 -                                GRID STATISTICS                              -
 -                                                                             -
 -------------------------------------------------------------------------------
 LP    KERNEL             BACKEND                              COUNT     PERCENT
 4     collocate ortho    REF                                   6588      49.22%
 4     integrate ortho    REF                                   6222      46.48%
 0     collocate general  REF                                    384       2.87%
 0     integrate general  REF                                    192       1.43%
 -------------------------------------------------------------------------------

 MEMORY| Estimated peak process memory [MiB]                                 201

 -------------------------------------------------------------------------------
 ----                             MULTIGRID INFO                            ----
 -------------------------------------------------------------------------------
 count for grid        1:          11541          cutoff [a.u.]          200.00
 count for grid        2:          29268          cutoff [a.u.]           66.67
 count for grid        3:          12369          cutoff [a.u.]           22.22
 count for grid        4:           8628          cutoff [a.u.]            7.41
 total gridlevel count  :          61806

 -------------------------------------------------------------------------------
 -                                                                             -
 -                         MESSAGE PASSING PERFORMANCE                         -
 -                                                                             -
 -------------------------------------------------------------------------------

 ROUTINE             CALLS      AVE VOLUME [Bytes]
 MP_Group                5
 MP_Bcast            49986                   4723.
 MP_Allreduce         1006                    508.
 MP_Sync                 4
 MP_Alltoall           347                 443206.
 MP_ISendRecv         6615                  12920.
 MP_Wait             43573
 MP_ISend            37728                   4611.
 MP_IRecv            61148                   2855.
 MP_Recv               144                    864.
 -------------------------------------------------------------------------------


 -------------------------------------------------------------------------------
 -                                                                             -
 -                           R E F E R E N C E S                               -
 -                                                                             -
 -------------------------------------------------------------------------------
 
 CP2K version 2022.1 (Development Version), the CP2K developers group (2022).
 CP2K is freely available from https://www.cp2k.org/ .

 Kuehne,Thomas D.; Iannuzzi,Marcella; Del Ben,Mauro;
 Rybkin,Vladimir V.; Seewald,Patrick; Stein,Frederick; Laino,Teodoro;
 Khaliullin,Rustam Z.; Schuett,Ole; Schiffmann,Florian; Golze,Dorothea;
 Wilhelm,Jan; Chulkov,Sergey; Bani-Hashemian,Mohammad Hossein;
 Weber,Valery; Borstnik,Urban; Taillefumier,Mathieu;
 Jakobovits,Alice Shoshana; Lazzaro,Alfio; Pabst,Hans; Mueller,Tiziano;
 Schade,Robert; Guidon,Manuel; Andermatt,Samuel; Holmberg,Nico;
 Schenter,Gregory K.; Hehn,Anna; Bussy,Augustin; Belleflamme,Fabian;
 Tabacchi,Gloria; Gloess,Andreas; Lass,Michael; Bethune,Iain;
 Mundy,Christopher J.; Plessl,Christian; Watkins,Matt;
 VandeVondele,Joost; Krack,Matthias; Hutter,Juerg. 
 The Journal of Chemical Physics, 152 (19), (2020). 
 CP2K: An electronic structure and molecular dynamics software package -
 Quickstep: Efficient and accurate electronic structure calculations.
 https://doi.org/10.1063/5.0007045

 Schuett, Ole; Messmer, Peter; Hutter, Juerg; VandeVondele, Joost. 
 Electronic Structure Calculations on Graphics Processing Units, John
 Wiley & Sons, Ltd, 173-190 (2016). 
 GPU-Accelerated Sparse Matrix-Matrix Multiplication for
 Linear Scaling Density Functional Theory.
 https://doi.org/10.1002/9781118670712.ch8

 Borstnik, U; VandeVondele, J; Weber, V; Hutter, J. 
 PARALLEL COMPUTING, 40 (5-6), 47-58 (2014). 
 Sparse matrix multiplication: The distributed block-compressed sparse
 row library.
 https://doi.org/10.1016/j.parco.2014.03.012

 Hutter, J; Iannuzzi, M; Schiffmann, F; VandeVondele, J. 
 WIREs Comput Mol Sci., 4 (1), 15-25 (2014). 
 CP2K: atomistic simulations of condensed matter systems.
 https://doi.org/10.1002/wcms.1159

 Marek, A; Blum, V; Johanni, R; Havu, V; Lang, B; Auckenthaler, T;
 Heinecke, A; Bungartz, H; Lederer, H. 
 Journal of Physics: Condensed Matter, 26 (21), (2014). 
 The ELPA library: scalable parallel eigenvalue solutions for
 electronic structure
 theory and computational science.
 https://doi.org/10.1088/0953-8984/26/21/213201

 VandeVondele, J; Hutter, J. 
 JOURNAL OF CHEMICAL PHYSICS, 127 (11), 114105 (2007). 
 Gaussian basis sets for accurate calculations on molecular systems in
 gas and condensed phases.
 https://doi.org/10.1063/1.2770708

 Krack, M. 
 THEORETICAL CHEMISTRY ACCOUNTS, 114 (1-3), 145-152 (2005). 
 Pseudopotentials for H to Kr optimized for gradient-corrected
 exchange-correlation functionals.
 https://doi.org/10.1007/s00214-005-0655-y

 VandeVondele, J; Krack, M; Mohamed, F; Parrinello, M; Chassaing, T;
 Hutter, J. COMPUTER PHYSICS COMMUNICATIONS, 167 (2), 103-128 (2005). 
 QUICKSTEP: Fast and accurate density functional calculations using a
 mixed Gaussian and plane waves approach.
 https://doi.org/10.1016/j.cpc.2004.12.014

 Frigo, M; Johnson, SG. 
 PROCEEDINGS OF THE IEEE, 93 (2), 216-231 (2005). 
 The design and implementation of FFTW3.
 https://doi.org/10.1109/JPROC.2004.840301

 Hartwigsen, C; Goedecker, S; Hutter, J. 
 PHYSICAL REVIEW B, 58 (7), 3641-3662 (1998). 
 Relativistic separable dual-space Gaussian pseudopotentials from H to Rn.
 https://doi.org/10.1103/PhysRevB.58.3641

 Lippert, G; Hutter, J; Parrinello, M. 
 MOLECULAR PHYSICS, 92 (3), 477-487 (1997). 
 A hybrid Gaussian and plane wave density functional scheme.
 https://doi.org/10.1080/002689797170220

 Goedecker, S; Teter, M; Hutter, J. 
 PHYSICAL REVIEW B, 54 (3), 1703-1710 (1996). 
 Separable dual-space Gaussian pseudopotentials.
 https://doi.org/10.1103/PhysRevB.54.1703


 -------------------------------------------------------------------------------
 -                                                                             -
 -                                T I M I N G                                  -
 -                                                                             -
 -------------------------------------------------------------------------------
 SUBROUTINE                       CALLS  ASD         SELF TIME        TOTAL TIME
                                MAXIMUM       AVERAGE  MAXIMUM  AVERAGE  MAXIMUM
 CP2K                                 1  1.0    0.042    0.059    5.648    5.650
 qs_energies                          1  2.0    0.003    0.004    5.181    5.326
 scf_env_do_scf                       1  3.0    0.000    0.001    4.918    4.918
 scf_env_do_scf_inner_loop           17  4.0    0.005    0.007    4.917    4.918
 qs_scf_new_mos_kp                   17  5.0    0.000    0.001    4.125    4.131
 do_general_diag_kp                  17  6.0    0.025    0.026    4.125    4.131
 copy_dbcsr_to_fm                  5464  7.0    0.044    0.046    1.903    1.965
 dbcsr_complete_redistribute       8344  8.3    0.214    0.233    1.581    1.636
 dbcsr_desymmetrize_deep          10904  7.5    0.141    0.151    1.033    1.130
 mp_alltoall_i22                  19248  8.8    0.876    1.027    0.876    1.027
 cp_fm_start_copy_general          8320  7.3    0.071    0.128    0.730    0.755
 kpoint_density_transform            18  6.9    0.009    0.010    0.712    0.714
 mp_allgather_i                   16640  8.3    0.405    0.448    0.405    0.448
 qs_rho_update_rho_low               18  5.0    0.000    0.001    0.436    0.438
 calculate_rho_elec                  18  6.0    0.002    0.003    0.436    0.438
 mp_cart_sub                      10935  9.0    0.411    0.423    0.411    0.423
 copy_fm_to_dbcsr                  2880  7.9    0.007    0.008    0.419    0.422
 rs_pw_transfer                     143  9.4    0.002    0.003    0.409    0.420
 cp_cfm_geeig                        85  7.0    0.001    0.001    0.390    0.395
 cp_cfm_heevd                        85  8.0    0.307    0.312    0.307    0.312
 qs_ks_update_qs_env                 17  5.0    0.000    0.000    0.302    0.306
 rebuild_ks_matrix                   17  6.0    0.001    0.001    0.294    0.298
 qs_ks_build_kohn_sham_matrix        17  7.0    0.005    0.006    0.293    0.298
 density_rs2pw                       18  7.0    0.001    0.002    0.277    0.289
 dbcsr_finalize                   19772  8.8    0.060    0.062    0.248    0.272
 mp_alltoall_d11v                 57779  9.4    0.153    0.252    0.153    0.252
 sum_up_and_integrate                17  8.0    0.001    0.002    0.234    0.239
 integrate_v_rspace                  17  9.0    0.000    0.001    0.233    0.238
 mp_waitall_1                     40685  9.2    0.081    0.229    0.081    0.229
 potential_pw2rs                     17 10.0    0.001    0.001    0.227    0.228
 run_smeagol_bulktrans                1  3.0    0.005    0.163    0.064    0.207
 mp_bcast_iv                      33293  8.3    0.201    0.205    0.201    0.205
 pw_transfer                        226  8.9    0.016    0.017    0.195    0.203
 fft_wrap_pw1pw2                    192  9.9    0.001    0.001    0.178    0.186
 rs_pw_transfer_RS2PW_200            20  8.8    0.070    0.073    0.156    0.168
 grid_collocate_task_list            18  7.0    0.153    0.165    0.153    0.165
 hybrid_alltoall_any              10904  8.5    0.042    0.046    0.110    0.163
 mp_sum_i                             8  7.2    0.144    0.161    0.144    0.161
 restraint_control                    1  2.0    0.000    0.000    0.142    0.159
 fft3d_ps                           192 11.9    0.067    0.073    0.150    0.159
 convert_dbcsr_to_distributed_s       4  4.0    0.000    0.001    0.012    0.157
 mp_cart_create                    5470  9.0    0.139    0.156    0.139    0.156
 dbcsr_create_new                 25808  8.4    0.103    0.105    0.150    0.152
 fft_wrap_pw1pw2_200                 87 10.2    0.008    0.011    0.133    0.142
 rs_pw_transfer_PW2RS_200            18 11.8    0.051    0.056    0.139    0.141
 mp_waitany                        2888 11.2    0.122    0.137    0.122    0.137
 mp_alltoall_i11v                 35936  9.1    0.106    0.136    0.106    0.136
 -------------------------------------------------------------------------------

 The number of warnings for this run is : 2
 
 -------------------------------------------------------------------------------
  **** **** ******  **  PROGRAM ENDED AT                 2023-10-30 16:25:04.809
 ***** ** ***  *** **   PROGRAM RAN ON                                 nid005595
 **    ****   ******    PROGRAM RAN BY                                    cahart
 ***** **    ** ** **   PROGRAM PROCESS ID                                248538
  **** **  *******  **  PROGRAM STOPPED IN /mnt/lustre/a2fs-work2/work/e05/e05/c
                                           ahart/postdoc/transport/au-wire/arche
                                           r2/energy_force/kpoints-2-2-20_constr
                                           ained_energy-density-T_contour-double
