 its           1
 iter_nr           0
 its           2
 iter_nr           0
 its           3
 iter_nr           0
 its           4
 iter_nr           0
 its           5
 iter_nr           0
 its           6
 iter_nr           0
 its           7
 iter_nr           0
 its           8
 iter_nr           0
 its           9
 iter_nr           0
 its          10
 iter_nr           0
 its          11
 iter_nr           0
 its          12
 iter_nr           0
 its          13
 iter_nr           0
 its          14
 iter_nr           0
 its          15
 iter_nr           0
 its          16
 iter_nr           0
 its          17
 iter_nr           0
 its          18
 iter_nr           0
 its          19
 iter_nr           0
 its          20
 iter_nr           0
 its          21
 iter_nr           0
 its          22
 iter_nr           0
 its          23
 iter_nr           0
 its          24
 iter_nr           0
 its          25
 iter_nr           0
 its          26
 iter_nr           0
 its          27
 iter_nr           0
 its          28
 iter_nr           0
 its          29
 iter_nr           0
 its          30
 iter_nr           0
 Calculating transmission coefficient
 its          16
 iter_nr           0
 Calculating transmission coefficient
 its          17
 iter_nr           0
 Calculating transmission coefficient
 its          18
 iter_nr           0
 Calculating transmission coefficient
 its          19
 iter_nr           0
 Calculating transmission coefficient
 its          20
 iter_nr           0
 Calculating transmission coefficient
 its          21
 iter_nr           0
 Calculating transmission coefficient
 its          22
 iter_nr           0
 Calculating transmission coefficient
 its          23
 iter_nr           0
 Calculating transmission coefficient
 its          24
 iter_nr           0
 Calculating transmission coefficient
 its          25
 iter_nr           0
 Calculating transmission coefficient
 its          26
 iter_nr           0
 Calculating transmission coefficient
 its          27
 iter_nr           0
 Calculating transmission coefficient
 its          28
 iter_nr           0
 Calculating transmission coefficient
 its          29
 iter_nr           0
 Calculating transmission coefficient
 its          30
 iter_nr           0
 Calculating transmission coefficient
 Calculating transmission coefficient
                                git:5518aa6
 CP2K| cp2kflags: omp libint fftw3 libxc elpa parallel mpi3 scalapack mkl       
 CP2K| is freely available from                            https://www.cp2k.org/
 CP2K| Program compiled at                          Tue 12 Sep 09:20:02 BST 2023
 CP2K| Program compiled on                                                  ln01
 CP2K| Program compiled for                                                local
 CP2K| Data directory path    /work/e05/e05/cahart/smeagol/smgl/cp2k-private-ser
 CP2K| Input file name                                                   4_V.inp

 GLOBAL| Force Environment number                                              1
 GLOBAL| Basis set file name                                        BASIS_MOLOPT
 GLOBAL| Potential file name                                      GTH_POTENTIALS
 GLOBAL| MM Potential file name                                     MM_POTENTIAL
 GLOBAL| Coordinate file name                                             em.xyz
 GLOBAL| Method name                                                        CP2K
 GLOBAL| Project name                                                          V
 GLOBAL| Run type                                                        GEO_OPT
 GLOBAL| FFT library                                                       FFTW3
 GLOBAL| Diagonalization library                                            ELPA
 GLOBAL| Minimum number of eigenvectors for ELPA usage                        16
 GLOBAL| Orthonormality check for eigenvectors                          DISABLED
 GLOBAL| Matrix multiplication library                                 ScaLAPACK
 GLOBAL| All-to-all communication in single precision                          F
 GLOBAL| FFTs using library dependent lengths                                  T
 GLOBAL| Grid backend                                                       AUTO
 GLOBAL| Global print level                                               MEDIUM
 GLOBAL| MPI I/O enabled                                                       T
 GLOBAL| Total number of message passing processes                           192
 GLOBAL| Number of threads for this process                                    2
 GLOBAL| This output is from process                                           0
 GLOBAL| Stack size for threads created by OpenMP (OMP_STACKSIZE)        default
 GLOBAL| CPU model name                          AMD EPYC 7742 64-Core Processor
 GLOBAL| CPUID                                                              1002

 MEMORY| system memory details [Kb]
 MEMORY|                        rank 0           min           max       average
 MEMORY| MemTotal            263341976     263341976     263341976     263341976
 MEMORY| MemFree             238279168     238277676     242107692     240463287
 MEMORY| Buffers                     0             0             0             0
 MEMORY| Cached                4726848       1497504       4726848       2622380
 MEMORY| Slab                  3231544       2904912       3231544       3024607
 MEMORY| SReclaimable           134824        116540        134824        123188
 MEMORY| MemLikelyFree       243140840     242765460     243721736     243208855


 *** Fundamental physical constants (SI units) ***

 *** Literature: B. J. Mohr and B. N. Taylor,
 ***             CODATA recommended values of the fundamental physical
 ***             constants: 2006, Web Version 5.1
 ***             http://physics.nist.gov/constants

 Speed of light in vacuum [m/s]                             2.99792458000000E+08
 Magnetic constant or permeability of vacuum [N/A**2]       1.25663706143592E-06
 Electric constant or permittivity of vacuum [F/m]          8.85418781762039E-12
 Planck constant (h) [J*s]                                  6.62606896000000E-34
 Planck constant (h-bar) [J*s]                              1.05457162825177E-34
 Elementary charge [C]                                      1.60217648700000E-19
 Electron mass [kg]                                         9.10938215000000E-31
 Electron g factor [ ]                                     -2.00231930436220E+00
 Proton mass [kg]                                           1.67262163700000E-27
 Fine-structure constant                                    7.29735253760000E-03
 Rydberg constant [1/m]                                     1.09737315685270E+07
 Avogadro constant [1/mol]                                  6.02214179000000E+23
 Boltzmann constant [J/K]                                   1.38065040000000E-23
 Atomic mass unit [kg]                                      1.66053878200000E-27
 Bohr radius [m]                                            5.29177208590000E-11

 *** Conversion factors ***

 [u] -> [a.u.]                                              1.82288848426455E+03
 [Angstrom] -> [Bohr] = [a.u.]                              1.88972613288564E+00
 [a.u.] = [Bohr] -> [Angstrom]                              5.29177208590000E-01
 [a.u.] -> [s]                                              2.41888432650478E-17
 [a.u.] -> [fs]                                             2.41888432650478E-02
 [a.u.] -> [J]                                              4.35974393937059E-18
 [a.u.] -> [N]                                              8.23872205491840E-08
 [a.u.] -> [K]                                              3.15774647902944E+05
 [a.u.] -> [kJ/mol]                                         2.62549961709828E+03
 [a.u.] -> [kcal/mol]                                       6.27509468713739E+02
 [a.u.] -> [Pa]                                             2.94210107994716E+13
 [a.u.] -> [bar]                                            2.94210107994716E+08
 [a.u.] -> [atm]                                            2.90362800883016E+08
 [a.u.] -> [eV]                                             2.72113838565563E+01
 [a.u.] -> [Hz]                                             6.57968392072181E+15
 [a.u.] -> [1/cm] (wave numbers)                            2.19474631370540E+05
 [a.u./Bohr**2] -> [1/cm]                                   5.14048714338585E+03
 

 CELL_TOP| Volume [angstrom^3]:                                      3044.391638
 CELL_TOP| Vector a [angstrom     8.867     0.000     0.000   |a| =     8.867120
 CELL_TOP| Vector b [angstrom     0.000     8.867     0.000   |b| =     8.867120
 CELL_TOP| Vector c [angstrom     0.000     0.000    38.720   |c| =    38.720000
 CELL_TOP| Angle (b,c), alpha [degree]:                                90.000000
 CELL_TOP| Angle (a,c), beta  [degree]:                                90.000000
 CELL_TOP| Angle (a,b), gamma [degree]:                                90.000000
 CELL_TOP| Numerically orthorhombic:                                         YES
 CELL_TOP| Periodicity                                                       XYZ

 GENERATE|  Preliminary Number of Bonds generated:                             0
 GENERATE|  Achieved consistency in connectivity generation.

 CELL| Volume [angstrom^3]:                                          3044.391638
 CELL| Vector a [angstrom]:       8.867     0.000     0.000   |a| =     8.867120
 CELL| Vector b [angstrom]:       0.000     8.867     0.000   |b| =     8.867120
 CELL| Vector c [angstrom]:       0.000     0.000    38.720   |c| =    38.720000
 CELL| Angle (b,c), alpha [degree]:                                    90.000000
 CELL| Angle (a,c), beta  [degree]:                                    90.000000
 CELL| Angle (a,b), gamma [degree]:                                    90.000000
 CELL| Numerically orthorhombic:                                             YES
 CELL| Periodicity                                                           XYZ

 CELL_REF| Volume [angstrom^3]:                                      3044.391638
 CELL_REF| Vector a [angstrom     8.867     0.000     0.000   |a| =     8.867120
 CELL_REF| Vector b [angstrom     0.000     8.867     0.000   |b| =     8.867120
 CELL_REF| Vector c [angstrom     0.000     0.000    38.720   |c| =    38.720000
 CELL_REF| Angle (b,c), alpha [degree]:                                90.000000
 CELL_REF| Angle (a,c), beta  [degree]:                                90.000000
 CELL_REF| Angle (a,b), gamma [degree]:                                90.000000
 CELL_REF| Numerically orthorhombic:                                         YES
 CELL_REF| Periodicity                                                       XYZ

 *** WARNING in cryssym.F:165 :: Symmetry library SPGLIB not available ***


 *******************************************************************************
                                    Kpoints
 *******************************************************************************
 BRILLOUIN| K-point scheme                                        Monkhorst-Pack
 BRILLOUIN| K-Point grid                                             3    3    1
 BRILLOUIN| Accuracy in Symmetry determination                      0.100000E-07
 BRILLOUIN| K-Point point group symmetrization                               OFF
 BRILLOUIN| Wavefunction type                                            COMPLEX
 BRILLOUIN| Use full k-point grid     
 BRILLOUIN| List of Kpoints [2 Pi/Bohr]                                        9
 BRILLOUIN| Number           Weight            X              Y              Z
 BRILLOUIN|     1           0.11111       -0.33333       -0.33333        0.00000
 BRILLOUIN|     2           0.11111       -0.33333        0.00000        0.00000
 BRILLOUIN|     3           0.11111       -0.33333        0.33333        0.00000
 BRILLOUIN|     4           0.11111        0.00000       -0.33333        0.00000
 BRILLOUIN|     5           0.11111        0.00000        0.00000        0.00000
 BRILLOUIN|     6           0.11111        0.00000        0.33333        0.00000
 BRILLOUIN|     7           0.11111        0.33333       -0.33333        0.00000
 BRILLOUIN|     8           0.11111        0.33333        0.00000        0.00000
 BRILLOUIN|     9           0.11111        0.33333        0.33333        0.00000
 *******************************************************************************

 *******************************************************************************
 *******************************************************************************
 **                                                                           **
 **     #####                         ##              ##                      **
 **    ##   ##            ##          ##              ##                      **
 **   ##     ##                       ##            ######                    **
 **   ##     ##  ##   ##  ##   #####  ##  ##   ####   ##    #####    #####    **
 **   ##     ##  ##   ##  ##  ##      ## ##   ##      ##   ##   ##  ##   ##   **
 **   ##  ## ##  ##   ##  ##  ##      ####     ###    ##   ######   ######    **
 **    ##  ###   ##   ##  ##  ##      ## ##      ##   ##   ##       ##        **
 **     #######   #####   ##   #####  ##  ##  ####    ##    #####   ##        **
 **           ##                                                    ##        **
 **                                                                           **
 **                                                ... make the atoms dance   **
 **                                                                           **
 **            Copyright (C) by CP2K developers group (2000-2022)             **
 **                      J. Chem. Phys. 152, 194103 (2020)                    **
 **                                                                           **
 *******************************************************************************

 DFT| Spin restricted Kohn-Sham (RKS) calculation                            RKS
 DFT| Multiplicity                                                             2
 DFT| Number of spin states                                                    1
 DFT| Charge                                                                   0
 DFT| Self-interaction correction (SIC)                                       NO
 DFT| Cutoffs: density                                              1.000000E-10
 DFT|          gradient                                             1.000000E-10
 DFT|          tau                                                  1.000000E-10
 DFT|          cutoff_smoothing_range                               0.000000E+00
 DFT| XC density smoothing                                                  NONE
 DFT| XC derivatives                                                          PW

 FUNCTIONAL| PBE:
 FUNCTIONAL| J.P.Perdew, K.Burke, M.Ernzerhof, Phys. Rev. Letter, vol. 77, n 18,
 FUNCTIONAL|  pp. 3865-3868, (1996){spin unpolarized}                           


 QS| Method:                                                                 GPW
 QS| Density plane wave grid type                        NON-SPHERICAL FULLSPACE
 QS| Number of grid levels:                                                    4
 QS| Density cutoff [a.u.]:                                                300.0
 QS| Multi grid cutoff [a.u.]: 1) grid level                               300.0
 QS|                           2) grid level                               100.0
 QS|                           3) grid level                                33.3
 QS|                           4) grid level                                11.1
 QS| Grid level progression factor:                                          3.0
 QS| Relative density cutoff [a.u.]:                                        30.0
 QS| Interaction thresholds: eps_pgf_orb:                                1.0E-05
 QS|                         eps_filter_matrix:                          0.0E+00
 QS|                         eps_core_charge:                            1.0E-12
 QS|                         eps_rho_gspace:                             1.0E-10
 QS|                         eps_rho_rspace:                             1.0E-10
 QS|                         eps_gvg_rspace:                             1.0E-05
 QS|                         eps_ppl:                                    1.0E-02
 QS|                         eps_ppnl:                                   1.0E-07


 ATOMIC KIND INFORMATION

  1. Atomic kind: Au                                    Number of atoms:     111

     Orbital Basis Set                                         SZV-MOLOPT-SR-GTH

       Number of orbital shell sets:                                           1
       Number of orbital shells:                                               3
       Number of primitive Cartesian functions:                                5
       Number of Cartesian basis functions:                                   10
       Number of spherical basis functions:                                    9
       Norm type:                                                              2

       Normalised Cartesian orbitals:

                        Set   Shell   Orbital            Exponent    Coefficient

                          1       1    2s                2.950008       0.074626
                                                         1.563057      -0.007898
                                                         0.666664      -0.297688
                                                         0.251083       0.136809
                                                         0.081714       0.088198

                          1       2    3px               2.950008       0.148824
                                                         1.563057       0.025430
                                                         0.666664      -0.123003
                                                         0.251083       0.033648
                                                         0.081714       0.059008
                          1       2    3py               2.950008       0.148824
                                                         1.563057       0.025430
                                                         0.666664      -0.123003
                                                         0.251083       0.033648
                                                         0.081714       0.059008
                          1       2    3pz               2.950008       0.148824
                                                         1.563057       0.025430
                                                         0.666664      -0.123003
                                                         0.251083       0.033648
                                                         0.081714       0.059008

                          1       3    4dx2              2.950008      -0.139595
                                                         1.563057       1.319655
                                                         0.666664       0.377081
                                                         0.251083       0.046872
                                                         0.081714       0.001393
                          1       3    4dxy              2.950008      -0.241786
                                                         1.563057       2.285709
                                                         0.666664       0.653124
                                                         0.251083       0.081185
                                                         0.081714       0.002412
                          1       3    4dxz              2.950008      -0.241786
                                                         1.563057       2.285709
                                                         0.666664       0.653124
                                                         0.251083       0.081185
                                                         0.081714       0.002412
                          1       3    4dy2              2.950008      -0.139595
                                                         1.563057       1.319655
                                                         0.666664       0.377081
                                                         0.251083       0.046872
                                                         0.081714       0.001393
                          1       3    4dyz              2.950008      -0.241786
                                                         1.563057       2.285709
                                                         0.666664       0.653124
                                                         0.251083       0.081185
                                                         0.081714       0.002412
                          1       3    4dz2              2.950008      -0.139595
                                                         1.563057       1.319655
                                                         0.666664       0.377081
                                                         0.251083       0.046872
                                                         0.081714       0.001393

       Atomic covalent radius [Angstrom]:                                  1.340

       Atomic van der Waals radius [Angstrom]:                             1.660

     GTH Potential information for                                   GTH-PBE-q11

       Description:                       Goedecker-Teter-Hutter pseudopotential
                                           Goedecker et al., PRB 54, 1703 (1996)
                                          Hartwigsen et al., PRB 58, 3641 (1998)
                                                      Krack, TCA 114, 145 (2005)

       Gaussian exponent of the core charge distribution:               1.436369
       Electronic configuration (s p d ...):                           1   0  10

       Parameters of the local part of the GTH pseudopotential:

                          rloc        C1          C2          C3          C4
                        0.590000   10.517179

       Parameters of the non-local part of the GTH pseudopotential:

                   l      r(l)      h(i,j,l)

                   0    0.543847    5.786811   -2.250680
                                   -2.250680    2.905615
                   1    0.609173    4.284049   -4.071285
                                   -4.071285    4.817210
                   2    0.437309   -7.403281    3.010193
                                    3.010193   -3.413238

  2. Atomic kind: H                                     Number of atoms:       2

     Orbital Basis Set                                        DZVP-MOLOPT-SR-GTH

       Number of orbital shell sets:                                           1
       Number of orbital shells:                                               3
       Number of primitive Cartesian functions:                                5
       Number of Cartesian basis functions:                                    5
       Number of spherical basis functions:                                    5
       Norm type:                                                              2

       Normalised Cartesian orbitals:

                        Set   Shell   Orbital            Exponent    Coefficient

                          1       1    2s               10.068468      -0.133023
                                                         2.680223      -0.177618
                                                         0.791502      -0.258419
                                                         0.239116      -0.107525
                                                         0.082193      -0.014019

                          1       2    3s               10.068468       0.344673
                                                         2.680223       1.819821
                                                         0.791502      -0.999069
                                                         0.239116       0.017430
                                                         0.082193       0.082660

                          1       3    3px              10.068468       0.155326
                                                         2.680223       0.367157
                                                         0.791502       0.311480
                                                         0.239116       0.080105
                                                         0.082193       0.033440
                          1       3    3py              10.068468       0.155326
                                                         2.680223       0.367157
                                                         0.791502       0.311480
                                                         0.239116       0.080105
                                                         0.082193       0.033440
                          1       3    3pz              10.068468       0.155326
                                                         2.680223       0.367157
                                                         0.791502       0.311480
                                                         0.239116       0.080105
                                                         0.082193       0.033440

       Atomic covalent radius [Angstrom]:                                  0.320

       Atomic van der Waals radius [Angstrom]:                             1.090

     GTH Potential information for                                    GTH-PBE-q1

       Description:                       Goedecker-Teter-Hutter pseudopotential
                                           Goedecker et al., PRB 54, 1703 (1996)
                                          Hartwigsen et al., PRB 58, 3641 (1998)
                                                      Krack, TCA 114, 145 (2005)

       Gaussian exponent of the core charge distribution:              12.500000
       Electronic configuration (s p d ...):                                   1

       Parameters of the local part of the GTH pseudopotential:

                          rloc        C1          C2          C3          C4
                        0.200000   -4.178900    0.724463


 MOLECULE KIND INFORMATION


 All atoms are their own molecule, skipping detailed information


 TOTAL NUMBERS AND MAXIMUM NUMBERS

  Total number of            - Atomic kinds:                                   2
                             - Atoms:                                        113
                             - Shell sets:                                   113
                             - Shells:                                       339
                             - Primitive Cartesian functions:                565
                             - Cartesian basis functions:                   1120
                             - Spherical basis functions:                   1009

  Maximum angular momentum of- Orbital basis functions:                        2
                             - Local part of the GTH pseudopotential:          2
                             - Non-local part of the GTH pseudopotential:      4


 MODULE QUICKSTEP: ATOMIC COORDINATES IN ANGSTROM

   Atom Kind Element         X             Y             Z       Z(eff)     Mass
      1    1 Au   79      1.787000      1.281000      0.000000  11.0000 196.9666
      2    1 Au   79      0.309000      2.759000      2.090000  11.0000 196.9666
      3    1 Au   79      1.787000      1.281000      4.180000  11.0000 196.9666
      4    1 Au   79      0.309000      2.759000      6.270000  11.0000 196.9666
      5    1 Au   79      4.743000      1.281000      0.000000  11.0000 196.9666
      6    1 Au   79      3.265000      2.759000      2.090000  11.0000 196.9666
      7    1 Au   79      4.743000      1.281000      4.180000  11.0000 196.9666
      8    1 Au   79      3.265000      2.759000      6.270000  11.0000 196.9666
      9    1 Au   79      7.699000      1.281000      0.000000  11.0000 196.9666
     10    1 Au   79      6.221000      2.759000      2.090000  11.0000 196.9666
     11    1 Au   79      7.699000      1.281000      4.180000  11.0000 196.9666
     12    1 Au   79      6.221000      2.759000      6.270000  11.0000 196.9666
     13    1 Au   79      1.787000      4.236000      0.000000  11.0000 196.9666
     14    1 Au   79      0.309000      5.714000      2.090000  11.0000 196.9666
     15    1 Au   79      1.787000      4.236000      4.180000  11.0000 196.9666
     16    1 Au   79      0.309000      5.714000      6.270000  11.0000 196.9666
     17    1 Au   79      4.743000      4.236000      0.000000  11.0000 196.9666
     18    1 Au   79      3.265000      5.714000      2.090000  11.0000 196.9666
     19    1 Au   79      4.743000      4.236000      4.180000  11.0000 196.9666
     20    1 Au   79      3.265000      5.714000      6.270000  11.0000 196.9666
     21    1 Au   79      7.699000      4.236000      0.000000  11.0000 196.9666
     22    1 Au   79      6.221000      5.714000      2.090000  11.0000 196.9666
     23    1 Au   79      7.699000      4.236000      4.180000  11.0000 196.9666
     24    1 Au   79      6.221000      5.714000      6.270000  11.0000 196.9666
     25    1 Au   79      1.787000      7.192000      0.000000  11.0000 196.9666
     26    1 Au   79      0.309000      8.670000      2.090000  11.0000 196.9666
     27    1 Au   79      1.787000      7.192000      4.180000  11.0000 196.9666
     28    1 Au   79      0.309000      8.670000      6.270000  11.0000 196.9666
     29    1 Au   79      4.743000      7.192000      0.000000  11.0000 196.9666
     30    1 Au   79      3.265000      8.670000      2.090000  11.0000 196.9666
     31    1 Au   79      4.743000      7.192000      4.180000  11.0000 196.9666
     32    1 Au   79      3.265000      8.670000      6.270000  11.0000 196.9666
     33    1 Au   79      7.699000      7.192000      0.000000  11.0000 196.9666
     34    1 Au   79      6.221000      8.670000      2.090000  11.0000 196.9666
     35    1 Au   79      7.699000      7.192000      4.180000  11.0000 196.9666
     36    1 Au   79      6.221000      8.670000      6.270000  11.0000 196.9666
     37    1 Au   79      1.787000      1.281000      8.360000  11.0000 196.9666
     38    1 Au   79      1.787000      4.236000      8.360000  11.0000 196.9666
     39    1 Au   79      1.787000      7.192000      8.360000  11.0000 196.9666
     40    1 Au   79      4.743000      1.281000      8.360000  11.0000 196.9666
     41    1 Au   79      4.743000      4.236000      8.360000  11.0000 196.9666
     42    1 Au   79      4.743000      7.192000      8.360000  11.0000 196.9666
     43    1 Au   79      7.699000      1.281000      8.360000  11.0000 196.9666
     44    1 Au   79      7.699000      4.236000      8.360000  11.0000 196.9666
     45    1 Au   79      7.699000      7.192000      8.360000  11.0000 196.9666
     46    1 Au   79      0.309000      2.759000     10.450000  11.0000 196.9666
     47    1 Au   79      0.309000      5.714000     10.450000  11.0000 196.9666
     48    1 Au   79      0.309000      8.670000     10.450000  11.0000 196.9666
     49    1 Au   79      3.265000      2.759000     10.450000  11.0000 196.9666
     50    1 Au   79      3.265000      5.714000     10.450000  11.0000 196.9666
     51    1 Au   79      3.265000      8.670000     10.450000  11.0000 196.9666
     52    1 Au   79      6.221000      2.759000     10.450000  11.0000 196.9666
     53    1 Au   79      6.221000      5.714000     10.450000  11.0000 196.9666
     54    1 Au   79      6.221000      8.670000     10.450000  11.0000 196.9666
     55    1 Au   79      1.767000      4.215000     12.446000  11.0000 196.9666
     56    1 Au   79      1.766000      7.214000     12.446000  11.0000 196.9666
     57    1 Au   79      4.765000      4.213000     12.446000  11.0000 196.9666
     58    1 Au   79      4.767000      7.214000     12.445000  11.0000 196.9666
     59    1 Au   79      3.270932      5.718890     14.451439  11.0000 196.9666
     60    1 Au   79      3.492865      5.932516     17.135471  11.0000 196.9666
     61    2 H     1      3.209250      5.659807     18.925096   1.0000   1.0079
     62    2 H     1      3.325638      5.772092     19.795115   1.0000   1.0079
     63    1 Au   79      3.042494      5.498844     21.584734  11.0000 196.9666
     64    1 Au   79      3.261206      5.710306     24.269238  11.0000 196.9666
     65    1 Au   79      1.765000      4.213000     26.275000  11.0000 196.9666
     66    1 Au   79      1.765000      7.214000     26.274000  11.0000 196.9666
     67    1 Au   79      4.765000      4.214000     26.274000  11.0000 196.9666
     68    1 Au   79      4.765000      7.214000     26.275000  11.0000 196.9666
     69    1 Au   79      0.309000      2.759000     28.270000  11.0000 196.9666
     70    1 Au   79      0.309000      5.714000     28.270000  11.0000 196.9666
     71    1 Au   79      0.309000      8.670000     28.270000  11.0000 196.9666
     72    1 Au   79      3.265000      2.759000     28.270000  11.0000 196.9666
     73    1 Au   79      3.265000      5.714000     28.270000  11.0000 196.9666
     74    1 Au   79      3.265000      8.670000     28.270000  11.0000 196.9666
     75    1 Au   79      6.221000      2.759000     28.270000  11.0000 196.9666
     76    1 Au   79      6.221000      5.714000     28.270000  11.0000 196.9666
     77    1 Au   79      6.221000      8.670000     28.270000  11.0000 196.9666
     78    1 Au   79      1.787000      1.281000     30.360000  11.0000 196.9666
     79    1 Au   79      0.309000      2.759000     32.450000  11.0000 196.9666
     80    1 Au   79      1.787000      1.281000     34.540000  11.0000 196.9666
     81    1 Au   79      0.309000      2.759000     36.630000  11.0000 196.9666
     82    1 Au   79      4.743000      1.281000     30.360000  11.0000 196.9666
     83    1 Au   79      3.265000      2.759000     32.450000  11.0000 196.9666
     84    1 Au   79      4.743000      1.281000     34.540000  11.0000 196.9666
     85    1 Au   79      3.265000      2.759000     36.630000  11.0000 196.9666
     86    1 Au   79      7.699000      1.281000     30.360000  11.0000 196.9666
     87    1 Au   79      6.221000      2.759000     32.450000  11.0000 196.9666
     88    1 Au   79      7.699000      1.281000     34.540000  11.0000 196.9666
     89    1 Au   79      6.221000      2.759000     36.630000  11.0000 196.9666
     90    1 Au   79      1.787000      4.236000     30.360000  11.0000 196.9666
     91    1 Au   79      0.309000      5.714000     32.450000  11.0000 196.9666
     92    1 Au   79      1.787000      4.236000     34.540000  11.0000 196.9666
     93    1 Au   79      0.309000      5.714000     36.630000  11.0000 196.9666
     94    1 Au   79      4.743000      4.236000     30.360000  11.0000 196.9666
     95    1 Au   79      3.265000      5.714000     32.450000  11.0000 196.9666
     96    1 Au   79      4.743000      4.236000     34.540000  11.0000 196.9666
     97    1 Au   79      3.265000      5.714000     36.630000  11.0000 196.9666
     98    1 Au   79      7.699000      4.236000     30.360000  11.0000 196.9666
     99    1 Au   79      6.221000      5.714000     32.450000  11.0000 196.9666
    100    1 Au   79      7.699000      4.236000     34.540000  11.0000 196.9666
    101    1 Au   79      6.221000      5.714000     36.630000  11.0000 196.9666
    102    1 Au   79      1.787000      7.192000     30.360000  11.0000 196.9666
    103    1 Au   79      0.309000      8.670000     32.450000  11.0000 196.9666
    104    1 Au   79      1.787000      7.192000     34.540000  11.0000 196.9666
    105    1 Au   79      0.309000      8.670000     36.630000  11.0000 196.9666
    106    1 Au   79      4.743000      7.192000     30.360000  11.0000 196.9666
    107    1 Au   79      3.265000      8.670000     32.450000  11.0000 196.9666
    108    1 Au   79      4.743000      7.192000     34.540000  11.0000 196.9666
    109    1 Au   79      3.265000      8.670000     36.630000  11.0000 196.9666
    110    1 Au   79      7.699000      7.192000     30.360000  11.0000 196.9666
    111    1 Au   79      6.221000      8.670000     32.450000  11.0000 196.9666
    112    1 Au   79      7.699000      7.192000     34.540000  11.0000 196.9666
    113    1 Au   79      6.221000      8.670000     36.630000  11.0000 196.9666



 SCF PARAMETERS         Density guess:                                   RESTART
                        --------------------------------------------------------
                        max_scf:                                             500
                        max_scf_history:                                       0
                        max_diis:                                              4
                        --------------------------------------------------------
                        eps_scf:                                        1.00E-06
                        eps_scf_history:                                0.00E+00
                        eps_diis:                                       1.00E-01
                        eps_eigval:                                     1.00E-05
                        --------------------------------------------------------
                        level_shift [a.u.]:                             0.000000
                        added MOs                                       100    0
                        --------------------------------------------------------
                        Mixing method:                            BROYDEN_MIXING
                                                charge density mixing in g-space
                        --------------------------------------------------------
                        Smear method:                                FERMI_DIRAC
                        Electronic temperature [K]:                        300.0
                        Electronic temperature [a.u.]:                  9.50E-04
                        Accuracy threshold:                             1.00E-10
                        --------------------------------------------------------
                        No outer SCF

 PW_GRID| Information for grid number                                          1
 PW_GRID| Grid distributed over                                   192 processors
 PW_GRID| Real space group dimensions                                    12   16
 PW_GRID| the grid is blocked:                                               YES
 PW_GRID| Cutoff [a.u.]                                                    300.0
 PW_GRID| spherical cutoff:                                                   NO
 PW_GRID|   Bounds   1            -66      65                Points:         132
 PW_GRID|   Bounds   2            -66      65                Points:         132
 PW_GRID|   Bounds   3           -288     287                Points:         576
 PW_GRID| Volume element (a.u.^3)  0.2047E-02     Volume (a.u.^3)     20544.5734
 PW_GRID| Grid span                                                    FULLSPACE
 PW_GRID|   Distribution                         Average         Max         Min
 PW_GRID|   G-Vectors                            52272.0       52272       52272
 PW_GRID|   G-Rays                                 396.0         396         396
 PW_GRID|   Real Space Points                    52272.0       52272       52272

 PW_GRID| Information for grid number                                          2
 PW_GRID| Number of the reference grid                                         1
 PW_GRID| Grid distributed over                                   192 processors
 PW_GRID| Real space group dimensions                                    12   16
 PW_GRID| the grid is blocked:                                                NO
 PW_GRID| Cutoff [a.u.]                                                    100.0
 PW_GRID| spherical cutoff:                                                   NO
 PW_GRID|   Bounds   1            -37      37                Points:          75
 PW_GRID|   Bounds   2            -37      37                Points:          75
 PW_GRID|   Bounds   3           -165     164                Points:         330
 PW_GRID| Volume element (a.u.^3)  0.1107E-01     Volume (a.u.^3)     20544.5734
 PW_GRID| Grid span                                                    FULLSPACE
 PW_GRID|   Distribution                         Average         Max         Min
 PW_GRID|   G-Vectors                             9668.0       29700           0
 PW_GRID|   G-Rays                                 128.9         396           0
 PW_GRID|   Real Space Points                     9668.0       11550        7920

 PW_GRID| Information for grid number                                          3
 PW_GRID| Number of the reference grid                                         1
 PW_GRID| Grid distributed over                                   192 processors
 PW_GRID| Real space group dimensions                                    12   16
 PW_GRID| the grid is blocked:                                                NO
 PW_GRID| Cutoff [a.u.]                                                     33.3
 PW_GRID| spherical cutoff:                                                   NO
 PW_GRID|   Bounds   1            -22      21                Points:          44
 PW_GRID|   Bounds   2            -22      21                Points:          44
 PW_GRID|   Bounds   3            -96      95                Points:         192
 PW_GRID| Volume element (a.u.^3)  0.5527E-01     Volume (a.u.^3)     20544.5734
 PW_GRID| Grid span                                                    FULLSPACE
 PW_GRID|   Distribution                         Average         Max         Min
 PW_GRID|   G-Vectors                             1936.0       17424           0
 PW_GRID|   G-Rays                                  44.0         396           0
 PW_GRID|   Real Space Points                     1936.0        2304        1152

 PW_GRID| Information for grid number                                          4
 PW_GRID| Number of the reference grid                                         1
 PW_GRID| Grid distributed over                                   192 processors
 PW_GRID| Real space group dimensions                                    12   16
 PW_GRID| the grid is blocked:                                                NO
 PW_GRID| Cutoff [a.u.]                                                     11.1
 PW_GRID| spherical cutoff:                                                   NO
 PW_GRID|   Bounds   1            -12      12                Points:          25
 PW_GRID|   Bounds   2            -12      12                Points:          25
 PW_GRID|   Bounds   3            -55      54                Points:         110
 PW_GRID| Volume element (a.u.^3)  0.2988         Volume (a.u.^3)     20544.5734
 PW_GRID| Grid span                                                    FULLSPACE
 PW_GRID|   Distribution                         Average         Max         Min
 PW_GRID|   G-Vectors                              358.1        9900           0
 PW_GRID|   G-Rays                                  14.3         396           0
 PW_GRID|   Real Space Points                      358.1         660         220

 POISSON| Solver                                                        PERIODIC
 POISSON| Periodicity                                                        XYZ

 RS_GRID| Information for grid number                                          1
 RS_GRID|   Bounds   1            -66      65                Points:         132
 RS_GRID|   Bounds   2            -66      65                Points:         132
 RS_GRID|   Bounds   3           -288     287                Points:         576
 RS_GRID| Real space distribution over                                  6 groups
 RS_GRID| Real space distribution along direction                              2
 RS_GRID| Border size                                                         35
 RS_GRID| Real space distribution over                                 32 groups
 RS_GRID| Real space distribution along direction                              3
 RS_GRID| Border size                                                         35
 RS_GRID|   Distribution                         Average         Max         Min
 RS_GRID|   Planes                                  92.0          92          92
 RS_GRID|   Distribution                         Average         Max         Min
 RS_GRID|   Planes                                  88.0          88          88

 RS_GRID| Information for grid number                                          2
 RS_GRID|   Bounds   1            -37      37                Points:          75
 RS_GRID|   Bounds   2            -37      37                Points:          75
 RS_GRID|   Bounds   3           -165     164                Points:         330
 RS_GRID| Real space distribution over                                  6 groups
 RS_GRID| Real space distribution along direction                              2
 RS_GRID| Border size                                                         24
 RS_GRID| Real space distribution over                                 32 groups
 RS_GRID| Real space distribution along direction                              3
 RS_GRID| Border size                                                         24
 RS_GRID|   Distribution                         Average         Max         Min
 RS_GRID|   Planes                                  60.5          61          60
 RS_GRID|   Distribution                         Average         Max         Min
 RS_GRID|   Planes                                  58.3          59          58

 RS_GRID| Information for grid number                                          3
 RS_GRID|   Bounds   1            -22      21                Points:          44
 RS_GRID|   Bounds   2            -22      21                Points:          44
 RS_GRID|   Bounds   3            -96      95                Points:         192
 RS_GRID| Real space fully replicated
 RS_GRID| Group size                                                           1

 RS_GRID| Information for grid number                                          4
 RS_GRID|   Bounds   1            -12      12                Points:          25
 RS_GRID|   Bounds   2            -12      12                Points:          25
 RS_GRID|   Bounds   3            -55      54                Points:         110
 RS_GRID| Real space fully replicated
 RS_GRID| Group size                                                           1

 KPOINTS| Number of kpoint groups                                              1
 KPOINTS| Size of each kpoint group                                          192
 KPOINTS| Number of kpoints per group                                          9

 BFGS| Use rational function optimization for step estimation:                NO
 BFGS| Use model Hessian for initial guess:                                  YES
 BFGS| Restart Hessian:                                                       NO
 BFGS| Trust radius:                                                       0.472

 *******************************************************************************
 ***                     STARTING GEOMETRY OPTIMIZATION                      ***
 ***                                   BFGS                                  ***
 *******************************************************************************

 Number of electrons:                                                       1223
 Number of occupied orbitals:                                                612
 Number of molecular orbitals:                                               712

 Number of orbital functions:                                               1009
 Number of independent orbital functions:                                   1009

 Extrapolation method: initial_guess


 SCF WAVEFUNCTION OPTIMIZATION

  Step     Update method      Time    Convergence         Total energy    Change
  ------------------------------------------------------------------------------
 SMEAGOL DEBUG| Number of electrons in the unit cell =      1222.9673689821
     1 NoMix/SMGL  0.30E+00   37.6     1.68562183     -3690.6560969546 -3.69E+03
 SMEAGOL DEBUG| Number of electrons in the unit cell =      1224.2917295167
     2 Broy./SMGL  0.30E+00    6.6     0.14527500     -3686.8564172131  3.80E+00
 SMEAGOL DEBUG| Number of electrons in the unit cell =      1223.7679300493
     3 Broy./SMGL  0.30E+00    6.3     0.14357115     -3695.0549591254 -8.20E+00
 SMEAGOL DEBUG| Number of electrons in the unit cell =      1223.3681621614
     4 Broy./SMGL  0.30E+00    6.3     0.03828619     -3692.4104711591  2.64E+00
 SMEAGOL DEBUG| Number of electrons in the unit cell =      1223.3836124363
     5 Broy./SMGL  0.30E+00    6.3     0.02093868     -3691.1050211202  1.31E+00
 SMEAGOL DEBUG| Number of electrons in the unit cell =      1223.3033783118
     6 Broy./SMGL  0.30E+00    6.4     0.00653440     -3690.7344645500  3.71E-01
 SMEAGOL DEBUG| Number of electrons in the unit cell =      1223.0576577096
     7 Broy./SMGL  0.30E+00    6.3     0.00188516     -3691.0732488695 -3.39E-01
 SMEAGOL DEBUG| Number of electrons in the unit cell =      1222.9716427900
     8 Broy./SMGL  0.30E+00    6.3     0.00330752     -3690.7959499186  2.77E-01
 SMEAGOL DEBUG| Number of electrons in the unit cell =      1222.9451038732
     9 Broy./SMGL  0.30E+00    6.4     0.00143550     -3690.6620773094  1.34E-01
 SMEAGOL DEBUG| Number of electrons in the unit cell =      1222.9459370965
    10 Broy./SMGL  0.30E+00    6.3     0.00040833     -3690.6220426037  4.00E-02
 SMEAGOL DEBUG| Number of electrons in the unit cell =      1222.9564808068
    11 Broy./SMGL  0.30E+00    6.4     0.00022100     -3690.6239339114 -1.89E-03
 SMEAGOL DEBUG| Number of electrons in the unit cell =      1222.9631501498
    12 Broy./SMGL  0.30E+00    6.3     0.00023054     -3690.6354859215 -1.16E-02
 SMEAGOL DEBUG| Number of electrons in the unit cell =      1222.9644114344
    13 Broy./SMGL  0.30E+00    6.3     0.00027024     -3690.6375703308 -2.08E-03
 SMEAGOL DEBUG| Number of electrons in the unit cell =      1222.9650094231
    14 Broy./SMGL  0.30E+00    6.3     0.00020943     -3690.6347859472  2.78E-03
 SMEAGOL DEBUG| Number of electrons in the unit cell =      1222.9634948331
    15 Broy./SMGL  0.30E+00    6.3     0.00011212     -3690.6346095896  1.76E-04
 SMEAGOL DEBUG| Number of electrons in the unit cell =      1222.9626106986
    16 Broy./SMGL  0.30E+00    6.3     0.00006056     -3690.6340070167  6.03E-04
 SMEAGOL DEBUG| Number of electrons in the unit cell =      1222.9625541853
    17 Broy./SMGL  0.30E+00    6.3     0.00005267     -3690.6337225004  2.85E-04
 SMEAGOL DEBUG| Number of electrons in the unit cell =      1222.9624900785
    18 Broy./SMGL  0.30E+00    6.3     0.00001436     -3690.6340337373 -3.11E-04
 SMEAGOL DEBUG| Number of electrons in the unit cell =      1222.9629361845
    19 Broy./SMGL  0.30E+00    6.3     0.00003162     -3690.6337673400  2.66E-04
 SMEAGOL DEBUG| Number of electrons in the unit cell =      1222.9630137278
    20 Broy./SMGL  0.30E+00    6.3     0.00000362     -3690.6338867862 -1.19E-04
 SMEAGOL DEBUG| Number of electrons in the unit cell =      1222.9631110200
    21 Broy./SMGL  0.30E+00    6.4     0.00000228     -3690.6336737459  2.13E-04
 SMEAGOL DEBUG| Number of electrons in the unit cell =      1222.9631487962
    22 Broy./SMGL  0.30E+00    6.4     0.00000336     -3690.6336082405  6.55E-05
 SMEAGOL DEBUG| Number of electrons in the unit cell =      1222.9632011235
    23 Broy./SMGL  0.30E+00    6.3     0.00000182     -3690.6336153369 -7.10E-06
 SMEAGOL DEBUG| Number of electrons in the unit cell =      1222.9632374819
    24 Broy./SMGL  0.30E+00    6.3     0.00000169     -3690.6336267150 -1.14E-05
 SMEAGOL DEBUG| Number of electrons in the unit cell =      1222.9632475203
    25 Broy./SMGL  0.30E+00    6.3     0.00000194     -3690.6336681204 -4.14E-05
 SMEAGOL DEBUG| Number of electrons in the unit cell =      1222.9632428924
    26 Broy./SMGL  0.30E+00    6.3     0.00000119     -3690.6336939578 -2.58E-05
 SMEAGOL DEBUG| Number of electrons in the unit cell =      1222.9632350888
    27 Broy./SMGL  0.30E+00    6.4     0.00000138     -3690.6336939860 -2.82E-08
 SMEAGOL DEBUG| Number of electrons in the unit cell =      1222.9632268109
    28 Broy./SMGL  0.30E+00    6.3     0.00000075     -3690.6336922996  1.69E-06

  *** SCF run converged in    28 steps ***


  Electronic density on regular grids:      -1222.9632268109        0.0367731891
  Core density on regular grids:             1222.9999997993       -0.0000002007
  Total charge density on r-space grids:        0.0367729885
  Total charge density g-space grids:           0.0367729885

  Overlap energy of the core charge distribution:               0.00000053410942
  Self energy of the core charge distribution:              -6424.54153828207382
  Core Hamiltonian energy:                                   2053.00966271808193
  Hartree energy:                                            1264.37916429963434
  Exchange-correlation energy:                               -583.48098156935657
  Electronic entropic energy:                                   0.00000000000000
  Fermi energy:                                                 0.00000000000000

  Total energy:                                             -3690.63369229960426

 The electron density is written in cube file format to the file:

 V-ELECTRON_DENSITY-1_0.cube

 !-----------------------------------------------------------------------------!
                     Mulliken Population Analysis

 #  Atom  Element  Kind  Atomic population                           Net charge
       1     Au       1         11.000100                             -0.000100
       2     Au       1         10.999265                              0.000735
       3     Au       1         10.987023                              0.012977
       4     Au       1         10.986050                              0.013950
       5     Au       1         11.000161                             -0.000161
       6     Au       1         10.999530                              0.000470
       7     Au       1         10.986913                              0.013087
       8     Au       1         10.979448                              0.020552
       9     Au       1         10.999916                              0.000084
      10     Au       1         10.999461                              0.000539
      11     Au       1         10.986514                              0.013486
      12     Au       1         10.986273                              0.013727
      13     Au       1         10.999858                              0.000142
      14     Au       1         10.999482                              0.000518
      15     Au       1         10.987486                              0.012514
      16     Au       1         10.979396                              0.020604
      17     Au       1         10.999920                              0.000080
      18     Au       1         10.999791                              0.000209
      19     Au       1         10.987505                              0.012495
      20     Au       1         10.975859                              0.024141
      21     Au       1         10.999675                              0.000325
      22     Au       1         10.999675                              0.000325
      23     Au       1         10.986581                              0.013419
      24     Au       1         10.979819                              0.020181
      25     Au       1         11.000143                             -0.000143
      26     Au       1         10.999580                              0.000420
      27     Au       1         10.987733                              0.012267
      28     Au       1         10.986425                              0.013575
      29     Au       1         11.000204                             -0.000204
      30     Au       1         10.999842                              0.000158
      31     Au       1         10.987774                              0.012226
      32     Au       1         10.980033                              0.019967
      33     Au       1         10.999960                              0.000040
      34     Au       1         10.999777                              0.000223
      35     Au       1         10.986699                              0.013301
      36     Au       1         10.986535                              0.013465
      37     Au       1         10.987839                              0.012161
      38     Au       1         10.948316                              0.051684
      39     Au       1         10.948595                              0.051405
      40     Au       1         10.988183                              0.011817
      41     Au       1         10.948333                              0.051667
      42     Au       1         10.948651                              0.051349
      43     Au       1         11.021089                             -0.021089
      44     Au       1         10.987382                              0.012618
      45     Au       1         10.987887                              0.012113
      46     Au       1         11.079530                             -0.079530
      47     Au       1         11.028396                             -0.028396
      48     Au       1         11.079438                             -0.079438
      49     Au       1         11.028479                             -0.028479
      50     Au       1         10.888696                              0.111304
      51     Au       1         11.028926                             -0.028926
      52     Au       1         11.079276                             -0.079276
      53     Au       1         11.028498                             -0.028498
      54     Au       1         11.079104                             -0.079104
      55     Au       1         11.011955                             -0.011955
      56     Au       1         11.007738                             -0.007738
      57     Au       1         11.007461                             -0.007461
      58     Au       1         11.004152                             -0.004152
      59     Au       1         11.123735                             -0.123735
      60     Au       1         11.084956                             -0.084956
      61     H        2          0.951015                              0.048985
      62     H        2          0.954618                              0.045382
      63     Au       1         11.074774                             -0.074774
      64     Au       1         11.153072                             -0.153072
      65     Au       1         11.009041                             -0.009041
      66     Au       1         11.011260                             -0.011260
      67     Au       1         11.011324                             -0.011324
      68     Au       1         11.014737                             -0.014737
      69     Au       1         11.027150                             -0.027150
      70     Au       1         10.986314                              0.013686
      71     Au       1         11.027785                             -0.027785
      72     Au       1         10.986511                              0.013489
      73     Au       1         10.865386                              0.134614
      74     Au       1         10.987160                              0.012840
      75     Au       1         11.027673                             -0.027673
      76     Au       1         10.986766                              0.013234
      77     Au       1         11.028150                             -0.028150
      78     Au       1         11.002508                             -0.002508
      79     Au       1         10.989426                              0.010574
      80     Au       1         10.999769                              0.000231
      81     Au       1         10.999683                              0.000317
      82     Au       1         11.002971                             -0.002971
      83     Au       1         10.988336                              0.011664
      84     Au       1         10.999843                              0.000157
      85     Au       1         10.999930                              0.000070
      86     Au       1         11.027242                             -0.027242
      87     Au       1         10.989282                              0.010718
      88     Au       1         10.999559                              0.000441
      89     Au       1         10.999867                              0.000133
      90     Au       1         10.969000                              0.031000
      91     Au       1         10.988281                              0.011719
      92     Au       1         10.999541                              0.000459
      93     Au       1         10.999883                              0.000117
      94     Au       1         10.968946                              0.031054
      95     Au       1         10.991617                              0.008383
      96     Au       1         10.999608                              0.000392
      97     Au       1         11.000130                             -0.000130
      98     Au       1         11.002097                             -0.002097
      99     Au       1         10.988403                              0.011597
     100     Au       1         10.999344                              0.000656
     101     Au       1         11.000066                             -0.000066
     102     Au       1         10.969200                              0.030800
     103     Au       1         10.989417                              0.010583
     104     Au       1         10.999832                              0.000168
     105     Au       1         10.999987                              0.000013
     106     Au       1         10.969183                              0.030817
     107     Au       1         10.988576                              0.011424
     108     Au       1         10.999898                              0.000102
     109     Au       1         11.000233                             -0.000233
     110     Au       1         11.002771                             -0.002771
     111     Au       1         10.989227                              0.010773
     112     Au       1         10.999642                              0.000358
     113     Au       1         11.000170                             -0.000170
 # Total charge                           1222.963228                  0.036772

 !-----------------------------------------------------------------------------!

 !-----------------------------------------------------------------------------!
                           Hirshfeld Charges

  #Atom  Element  Kind  Ref Charge     Population                    Net charge
      1       Au     1      11.000         11.000                        -0.000
      2       Au     1      11.000         11.000                         0.000
      3       Au     1      11.000         10.999                         0.001
      4       Au     1      11.000         10.990                         0.010
      5       Au     1      11.000         11.000                        -0.000
      6       Au     1      11.000         11.000                         0.000
      7       Au     1      11.000         10.999                         0.001
      8       Au     1      11.000         10.992                         0.008
      9       Au     1      11.000         11.000                         0.000
     10       Au     1      11.000         11.000                         0.000
     11       Au     1      11.000         10.999                         0.001
     12       Au     1      11.000         10.989                         0.011
     13       Au     1      11.000         11.000                         0.000
     14       Au     1      11.000         11.000                         0.000
     15       Au     1      11.000         10.999                         0.001
     16       Au     1      11.000         10.992                         0.008
     17       Au     1      11.000         11.000                         0.000
     18       Au     1      11.000         11.000                        -0.000
     19       Au     1      11.000         10.999                         0.001
     20       Au     1      11.000         10.990                         0.010
     21       Au     1      11.000         11.000                         0.000
     22       Au     1      11.000         11.000                        -0.000
     23       Au     1      11.000         10.999                         0.001
     24       Au     1      11.000         10.992                         0.008
     25       Au     1      11.000         11.000                        -0.000
     26       Au     1      11.000         11.000                         0.000
     27       Au     1      11.000         10.999                         0.001
     28       Au     1      11.000         10.989                         0.011
     29       Au     1      11.000         11.000                        -0.000
     30       Au     1      11.000         11.000                        -0.000
     31       Au     1      11.000         10.999                         0.001
     32       Au     1      11.000         10.992                         0.008
     33       Au     1      11.000         11.000                         0.000
     34       Au     1      11.000         11.000                        -0.000
     35       Au     1      11.000         10.999                         0.001
     36       Au     1      11.000         10.989                         0.011
     37       Au     1      11.000         10.995                         0.005
     38       Au     1      11.000         10.997                         0.003
     39       Au     1      11.000         10.997                         0.003
     40       Au     1      11.000         10.996                         0.004
     41       Au     1      11.000         10.997                         0.003
     42       Au     1      11.000         10.997                         0.003
     43       Au     1      11.000         10.996                         0.004
     44       Au     1      11.000         10.995                         0.005
     45       Au     1      11.000         10.996                         0.004
     46       Au     1      11.000         11.031                        -0.031
     47       Au     1      11.000         11.011                        -0.011
     48       Au     1      11.000         11.031                        -0.031
     49       Au     1      11.000         11.011                        -0.011
     50       Au     1      11.000         10.971                         0.029
     51       Au     1      11.000         11.011                        -0.011
     52       Au     1      11.000         11.031                        -0.031
     53       Au     1      11.000         11.011                        -0.011
     54       Au     1      11.000         11.031                        -0.031
     55       Au     1      11.000         10.979                         0.021
     56       Au     1      11.000         10.977                         0.023
     57       Au     1      11.000         10.977                         0.023
     58       Au     1      11.000         10.975                         0.025
     59       Au     1      11.000         11.028                        -0.028
     60       Au     1      11.000         11.013                        -0.013
     61       H      2       1.000          1.037                        -0.037
     62       H      2       1.000          1.042                        -0.042
     63       Au     1      11.000         10.998                         0.002
     64       Au     1      11.000         11.047                        -0.047
     65       Au     1      11.000         10.974                         0.026
     66       Au     1      11.000         10.975                         0.025
     67       Au     1      11.000         10.975                         0.025
     68       Au     1      11.000         10.977                         0.023
     69       Au     1      11.000         11.031                        -0.031
     70       Au     1      11.000         11.013                        -0.013
     71       Au     1      11.000         11.031                        -0.031
     72       Au     1      11.000         11.013                        -0.013
     73       Au     1      11.000         10.975                         0.025
     74       Au     1      11.000         11.013                        -0.013
     75       Au     1      11.000         11.031                        -0.031
     76       Au     1      11.000         11.013                        -0.013
     77       Au     1      11.000         11.031                        -0.031
     78       Au     1      11.000         10.981                         0.019
     79       Au     1      11.000         10.999                         0.001
     80       Au     1      11.000         11.000                        -0.000
     81       Au     1      11.000         11.000                         0.000
     82       Au     1      11.000         10.981                         0.019
     83       Au     1      11.000         10.998                         0.002
     84       Au     1      11.000         11.000                        -0.000
     85       Au     1      11.000         11.000                         0.000
     86       Au     1      11.000         10.985                         0.015
     87       Au     1      11.000         10.999                         0.001
     88       Au     1      11.000         11.000                         0.000
     89       Au     1      11.000         11.000                         0.000
     90       Au     1      11.000         10.984                         0.016
     91       Au     1      11.000         10.998                         0.002
     92       Au     1      11.000         11.000                         0.000
     93       Au     1      11.000         11.000                         0.000
     94       Au     1      11.000         10.984                         0.016
     95       Au     1      11.000         10.998                         0.002
     96       Au     1      11.000         11.000                         0.000
     97       Au     1      11.000         11.000                        -0.000
     98       Au     1      11.000         10.981                         0.019
     99       Au     1      11.000         10.998                         0.002
    100       Au     1      11.000         11.000                         0.000
    101       Au     1      11.000         11.000                        -0.000
    102       Au     1      11.000         10.984                         0.016
    103       Au     1      11.000         10.999                         0.001
    104       Au     1      11.000         11.000                        -0.000
    105       Au     1      11.000         11.000                         0.000
    106       Au     1      11.000         10.984                         0.016
    107       Au     1      11.000         10.998                         0.002
    108       Au     1      11.000         11.000                        -0.000
    109       Au     1      11.000         11.000                        -0.000
    110       Au     1      11.000         10.981                         0.019
    111       Au     1      11.000         10.999                         0.001
    112       Au     1      11.000         11.000                         0.000
    113       Au     1      11.000         11.000                        -0.000

  Total Charge                                                            0.037
 !-----------------------------------------------------------------------------!
 Calculating transmission coefficient
 SMEAGOL DEBUG| Number of electrons in the unit cell =      1222.9632275583

 ENERGY| Total FORCE_EVAL ( QS ) energy [a.u.]:            -3690.633683035441663

 ATOMIC FORCES in [a.u.]

 # Atom   Kind   Element          X              Y              Z
      1      1      Au          0.00000000     0.00000000     0.00000000
      2      1      Au          0.00000000     0.00000000     0.00000000
      3      1      Au          0.00000000     0.00000000     0.00000000
      4      1      Au          0.00000000     0.00000000     0.00000000
      5      1      Au          0.00000000     0.00000000     0.00000000
      6      1      Au          0.00000000     0.00000000     0.00000000
      7      1      Au          0.00000000     0.00000000     0.00000000
      8      1      Au          0.00000000     0.00000000     0.00000000
      9      1      Au          0.00000000     0.00000000     0.00000000
     10      1      Au          0.00000000     0.00000000     0.00000000
     11      1      Au          0.00000000     0.00000000     0.00000000
     12      1      Au          0.00000000     0.00000000     0.00000000
     13      1      Au          0.00000000     0.00000000     0.00000000
     14      1      Au          0.00000000     0.00000000     0.00000000
     15      1      Au          0.00000000     0.00000000     0.00000000
     16      1      Au          0.00000000     0.00000000     0.00000000
     17      1      Au          0.00000000     0.00000000     0.00000000
     18      1      Au          0.00000000     0.00000000     0.00000000
     19      1      Au          0.00000000     0.00000000     0.00000000
     20      1      Au          0.00000000     0.00000000     0.00000000
     21      1      Au          0.00000000     0.00000000     0.00000000
     22      1      Au          0.00000000     0.00000000     0.00000000
     23      1      Au          0.00000000     0.00000000     0.00000000
     24      1      Au          0.00000000     0.00000000     0.00000000
     25      1      Au          0.00000000     0.00000000     0.00000000
     26      1      Au          0.00000000     0.00000000     0.00000000
     27      1      Au          0.00000000     0.00000000     0.00000000
     28      1      Au          0.00000000     0.00000000     0.00000000
     29      1      Au          0.00000000     0.00000000     0.00000000
     30      1      Au          0.00000000     0.00000000     0.00000000
     31      1      Au          0.00000000     0.00000000     0.00000000
     32      1      Au          0.00000000     0.00000000     0.00000000
     33      1      Au          0.00000000     0.00000000     0.00000000
     34      1      Au          0.00000000     0.00000000     0.00000000
     35      1      Au          0.00000000     0.00000000     0.00000000
     36      1      Au          0.00000000     0.00000000     0.00000000
     37      1      Au          0.00000000     0.00000000     0.00000000
     38      1      Au          0.00000000     0.00000000     0.00000000
     39      1      Au          0.00000000     0.00000000     0.00000000
     40      1      Au          0.00000000     0.00000000     0.00000000
     41      1      Au          0.00000000     0.00000000     0.00000000
     42      1      Au          0.00000000     0.00000000     0.00000000
     43      1      Au          0.00000000     0.00000000     0.00000000
     44      1      Au          0.00000000     0.00000000     0.00000000
     45      1      Au          0.00000000     0.00000000     0.00000000
     46      1      Au          0.00000000     0.00000000     0.00000000
     47      1      Au          0.00000000     0.00000000     0.00000000
     48      1      Au          0.00000000     0.00000000     0.00000000
     49      1      Au          0.00000000     0.00000000     0.00000000
     50      1      Au          0.00000000     0.00000000     0.00000000
     51      1      Au          0.00000000     0.00000000     0.00000000
     52      1      Au          0.00000000     0.00000000     0.00000000
     53      1      Au          0.00000000     0.00000000     0.00000000
     54      1      Au          0.00000000     0.00000000     0.00000000
     55      1      Au          0.00000000     0.00000000     0.00000000
     56      1      Au          0.00000000     0.00000000     0.00000000
     57      1      Au          0.00000000     0.00000000     0.00000000
     58      1      Au          0.00000000     0.00000000     0.00000000
     59      1      Au         -0.00032160    -0.00030890    -0.00088303
     60      1      Au          0.00046654     0.00045117    -0.00010644
     61      2      H          -0.00016347    -0.00015818     0.00049810
     62      2      H          -0.00034217    -0.00033071    -0.00076687
     63      1      Au          0.00064162     0.00061959     0.00127158
     64      1      Au         -0.00060850    -0.00058460    -0.00207786
     65      1      Au          0.00000000     0.00000000     0.00000000
     66      1      Au          0.00000000     0.00000000     0.00000000
     67      1      Au          0.00000000     0.00000000     0.00000000
     68      1      Au          0.00000000     0.00000000     0.00000000
     69      1      Au          0.00000000     0.00000000     0.00000000
     70      1      Au          0.00000000     0.00000000     0.00000000
     71      1      Au          0.00000000     0.00000000     0.00000000
     72      1      Au          0.00000000     0.00000000     0.00000000
     73      1      Au          0.00000000     0.00000000     0.00000000
     74      1      Au          0.00000000     0.00000000     0.00000000
     75      1      Au          0.00000000     0.00000000     0.00000000
     76      1      Au          0.00000000     0.00000000     0.00000000
     77      1      Au          0.00000000     0.00000000     0.00000000
     78      1      Au          0.00000000     0.00000000     0.00000000
     79      1      Au          0.00000000     0.00000000     0.00000000
     80      1      Au          0.00000000     0.00000000     0.00000000
     81      1      Au          0.00000000     0.00000000     0.00000000
     82      1      Au          0.00000000     0.00000000     0.00000000
     83      1      Au          0.00000000     0.00000000     0.00000000
     84      1      Au          0.00000000     0.00000000     0.00000000
     85      1      Au          0.00000000     0.00000000     0.00000000
     86      1      Au          0.00000000     0.00000000     0.00000000
     87      1      Au          0.00000000     0.00000000     0.00000000
     88      1      Au          0.00000000     0.00000000     0.00000000
     89      1      Au          0.00000000     0.00000000     0.00000000
     90      1      Au          0.00000000     0.00000000     0.00000000
     91      1      Au          0.00000000     0.00000000     0.00000000
     92      1      Au          0.00000000     0.00000000     0.00000000
     93      1      Au          0.00000000     0.00000000     0.00000000
[...]
     18       Au     1      11.000         11.000                        -0.000
     19       Au     1      11.000         10.999                         0.001
     20       Au     1      11.000         10.990                         0.010
     21       Au     1      11.000         11.000                         0.000
     22       Au     1      11.000         11.000                        -0.000
     23       Au     1      11.000         10.999                         0.001
     24       Au     1      11.000         10.992                         0.008
     25       Au     1      11.000         11.000                        -0.000
     26       Au     1      11.000         11.000                         0.000
     27       Au     1      11.000         10.999                         0.001
     28       Au     1      11.000         10.989                         0.011
     29       Au     1      11.000         11.000                        -0.000
     30       Au     1      11.000         11.000                        -0.000
     31       Au     1      11.000         10.999                         0.001
     32       Au     1      11.000         10.992                         0.008
     33       Au     1      11.000         11.000                         0.000
     34       Au     1      11.000         11.000                        -0.000
     35       Au     1      11.000         10.999                         0.001
     36       Au     1      11.000         10.989                         0.011
     37       Au     1      11.000         10.995                         0.005
     38       Au     1      11.000         10.997                         0.003
     39       Au     1      11.000         10.997                         0.003
     40       Au     1      11.000         10.996                         0.004
     41       Au     1      11.000         10.997                         0.003
     42       Au     1      11.000         10.997                         0.003
     43       Au     1      11.000         10.996                         0.004
     44       Au     1      11.000         10.995                         0.005
     45       Au     1      11.000         10.996                         0.004
     46       Au     1      11.000         11.032                        -0.032
     47       Au     1      11.000         11.011                        -0.011
     48       Au     1      11.000         11.031                        -0.031
     49       Au     1      11.000         11.011                        -0.011
     50       Au     1      11.000         10.971                         0.029
     51       Au     1      11.000         11.012                        -0.012
     52       Au     1      11.000         11.031                        -0.031
     53       Au     1      11.000         11.012                        -0.012
     54       Au     1      11.000         11.031                        -0.031
     55       Au     1      11.000         10.981                         0.019
     56       Au     1      11.000         10.977                         0.023
     57       Au     1      11.000         10.977                         0.023
     58       Au     1      11.000         10.975                         0.025
     59       Au     1      11.000         11.025                        -0.025
     60       Au     1      11.000         11.007                        -0.007
     61       H      2       1.000          1.035                        -0.035
     62       H      2       1.000          1.046                        -0.046
     63       Au     1      11.000         11.003                        -0.003
     64       Au     1      11.000         11.050                        -0.050
     65       Au     1      11.000         10.975                         0.025
     66       Au     1      11.000         10.974                         0.026
     67       Au     1      11.000         10.974                         0.026
     68       Au     1      11.000         10.974                         0.026
     69       Au     1      11.000         11.031                        -0.031
     70       Au     1      11.000         11.013                        -0.013
     71       Au     1      11.000         11.031                        -0.031
     72       Au     1      11.000         11.013                        -0.013
     73       Au     1      11.000         10.975                         0.025
     74       Au     1      11.000         11.013                        -0.013
     75       Au     1      11.000         11.031                        -0.031
     76       Au     1      11.000         11.013                        -0.013
     77       Au     1      11.000         11.031                        -0.031
     78       Au     1      11.000         10.981                         0.019
     79       Au     1      11.000         10.999                         0.001
     80       Au     1      11.000         11.000                        -0.000
     81       Au     1      11.000         11.000                         0.000
     82       Au     1      11.000         10.981                         0.019
     83       Au     1      11.000         10.998                         0.002
     84       Au     1      11.000         11.000                        -0.000
     85       Au     1      11.000         11.000                         0.000
     86       Au     1      11.000         10.985                         0.015
     87       Au     1      11.000         10.999                         0.001
     88       Au     1      11.000         11.000                         0.000
     89       Au     1      11.000         11.000                         0.000
     90       Au     1      11.000         10.984                         0.016
     91       Au     1      11.000         10.998                         0.002
     92       Au     1      11.000         11.000                         0.000
     93       Au     1      11.000         11.000                         0.000
     94       Au     1      11.000         10.984                         0.016
     95       Au     1      11.000         10.998                         0.002
     96       Au     1      11.000         11.000                         0.000
     97       Au     1      11.000         11.000                        -0.000
     98       Au     1      11.000         10.981                         0.019
     99       Au     1      11.000         10.998                         0.002
    100       Au     1      11.000         11.000                         0.000
    101       Au     1      11.000         11.000                        -0.000
    102       Au     1      11.000         10.984                         0.016
    103       Au     1      11.000         10.999                         0.001
    104       Au     1      11.000         11.000                        -0.000
    105       Au     1      11.000         11.000                         0.000
    106       Au     1      11.000         10.984                         0.016
    107       Au     1      11.000         10.998                         0.002
    108       Au     1      11.000         11.000                        -0.000
    109       Au     1      11.000         11.000                        -0.000
    110       Au     1      11.000         10.981                         0.019
    111       Au     1      11.000         10.999                         0.001
    112       Au     1      11.000         11.000                         0.000
    113       Au     1      11.000         11.000                        -0.000

  Total Charge                                                            0.037
 !-----------------------------------------------------------------------------!
 Calculating transmission coefficient

 ENERGY| Total FORCE_EVAL ( QS ) energy [a.u.]:            -3690.633506594608207

 -------------------------------------------------------------------------------
 -                                                                             -
 -                                DBCSR STATISTICS                             -
 -                                                                             -
 -------------------------------------------------------------------------------
 COUNTER                                    TOTAL       BLAS       SMM       ACC
 flops inhomo. stacks                           0       0.0%      0.0%      0.0%
 flops total                         0.000000E+00       0.0%      0.0%      0.0%
 flops max/rank                      0.000000E+00       0.0%      0.0%      0.0%
 matmuls inhomo. stacks                         0       0.0%      0.0%      0.0%
 matmuls total                                  0       0.0%      0.0%      0.0%
 number of processed stacks                     0       0.0%      0.0%      0.0%
 average stack size                                     0.0       0.0       0.0
 marketing flops                     0.000000E+00
 -------------------------------------------------------------------------------
 -                                                                             -
 -                      DBCSR MESSAGE PASSING PERFORMANCE                      -
 -                                                                             -
 -------------------------------------------------------------------------------
 ROUTINE             CALLS      AVE VOLUME [Bytes]
 MP_Bcast                1                     12.
 MP_Allreduce        35789                      8.
 MP_Alltoall         14770                 115585.
 -------------------------------------------------------------------------------

 -------------------------------------------------------------------------------
 -                                                                             -
 -                                DBM STATISTICS                               -
 -                                                                             -
 -------------------------------------------------------------------------------
    M  x    N  x    K                                          COUNT     PERCENT
 -------------------------------------------------------------------------------

 -------------------------------------------------------------------------------
 -                                                                             -
 -                                GRID STATISTICS                              -
 -                                                                             -
 -------------------------------------------------------------------------------
 LP    KERNEL             BACKEND                              COUNT     PERCENT
 4     collocate ortho    REF                               47142144      43.90%
 4     integrate ortho    REF                               44214037      41.17%
 0     collocate general  REF                                6248448       5.82%
 0     integrate general  REF                                5554176       5.17%
 5     integrate ortho    REF                                2854319       2.66%
 1     integrate general  REF                                 672576       0.63%
 3     collocate ortho    REF                                 302078       0.28%
 3     integrate ortho    REF                                 286632       0.27%
 2     collocate ortho    REF                                  56832       0.05%
 2     integrate ortho    REF                                  53280       0.05%
 -------------------------------------------------------------------------------

 MEMORY| Estimated peak process memory [MiB]                                 619

 -------------------------------------------------------------------------------
 ----                             MULTIGRID INFO                            ----
 -------------------------------------------------------------------------------
 count for grid        1:         303072          cutoff [a.u.]          300.00
 count for grid        2:        1078210          cutoff [a.u.]          100.00
 count for grid        3:         886287          cutoff [a.u.]           33.33
 count for grid        4:        1415513          cutoff [a.u.]           11.11
 total gridlevel count  :        3683082

 -------------------------------------------------------------------------------
 -                                                                             -
 -                         MESSAGE PASSING PERFORMANCE                         -
 -                                                                             -
 -------------------------------------------------------------------------------

 ROUTINE             CALLS      AVE VOLUME [Bytes]
 MP_Group                5
 MP_Bcast           101477                  11980.
 MP_Allreduce        25736                    429.
 MP_Sync              6204
 MP_Alltoall         16780              206133027.
 MP_ISendRecv       390786                  11856.
 MP_Wait            504089
 MP_comm_split          31
 MP_ISend           218009                  59099.
 MP_IRecv           218344                  59045.
 MP_Recv             37550                 254479.
 MP_Write_All           64                  11376.
 -------------------------------------------------------------------------------


 -------------------------------------------------------------------------------
 -                                                                             -
 -                           R E F E R E N C E S                               -
 -                                                                             -
 -------------------------------------------------------------------------------
 
 CP2K version 2022.1 (Development Version), the CP2K developers group (2022).
 CP2K is freely available from https://www.cp2k.org/ .

 Kuehne,Thomas D.; Iannuzzi,Marcella; Del Ben,Mauro;
 Rybkin,Vladimir V.; Seewald,Patrick; Stein,Frederick; Laino,Teodoro;
 Khaliullin,Rustam Z.; Schuett,Ole; Schiffmann,Florian; Golze,Dorothea;
 Wilhelm,Jan; Chulkov,Sergey; Bani-Hashemian,Mohammad Hossein;
 Weber,Valery; Borstnik,Urban; Taillefumier,Mathieu;
 Jakobovits,Alice Shoshana; Lazzaro,Alfio; Pabst,Hans; Mueller,Tiziano;
 Schade,Robert; Guidon,Manuel; Andermatt,Samuel; Holmberg,Nico;
 Schenter,Gregory K.; Hehn,Anna; Bussy,Augustin; Belleflamme,Fabian;
 Tabacchi,Gloria; Gloess,Andreas; Lass,Michael; Bethune,Iain;
 Mundy,Christopher J.; Plessl,Christian; Watkins,Matt;
 VandeVondele,Joost; Krack,Matthias; Hutter,Juerg. 
 The Journal of Chemical Physics, 152 (19), (2020). 
 CP2K: An electronic structure and molecular dynamics software package -
 Quickstep: Efficient and accurate electronic structure calculations.
 https://doi.org/10.1063/5.0007045

 Schuett, Ole; Messmer, Peter; Hutter, Juerg; VandeVondele, Joost. 
 Electronic Structure Calculations on Graphics Processing Units, John
 Wiley & Sons, Ltd, 173-190 (2016). 
 GPU-Accelerated Sparse Matrix-Matrix Multiplication for
 Linear Scaling Density Functional Theory.
 https://doi.org/10.1002/9781118670712.ch8

 Borstnik, U; VandeVondele, J; Weber, V; Hutter, J. 
 PARALLEL COMPUTING, 40 (5-6), 47-58 (2014). 
 Sparse matrix multiplication: The distributed block-compressed sparse
 row library.
 https://doi.org/10.1016/j.parco.2014.03.012

 Hutter, J; Iannuzzi, M; Schiffmann, F; VandeVondele, J. 
 WIREs Comput Mol Sci., 4 (1), 15-25 (2014). 
 CP2K: atomistic simulations of condensed matter systems.
 https://doi.org/10.1002/wcms.1159

 Marek, A; Blum, V; Johanni, R; Havu, V; Lang, B; Auckenthaler, T;
 Heinecke, A; Bungartz, H; Lederer, H. 
 Journal of Physics: Condensed Matter, 26 (21), (2014). 
 The ELPA library: scalable parallel eigenvalue solutions for
 electronic structure
 theory and computational science.
 https://doi.org/10.1088/0953-8984/26/21/213201

 VandeVondele, J; Hutter, J. 
 JOURNAL OF CHEMICAL PHYSICS, 127 (11), 114105 (2007). 
 Gaussian basis sets for accurate calculations on molecular systems in
 gas and condensed phases.
 https://doi.org/10.1063/1.2770708

 Krack, M. 
 THEORETICAL CHEMISTRY ACCOUNTS, 114 (1-3), 145-152 (2005). 
 Pseudopotentials for H to Kr optimized for gradient-corrected
 exchange-correlation functionals.
 https://doi.org/10.1007/s00214-005-0655-y

 VandeVondele, J; Krack, M; Mohamed, F; Parrinello, M; Chassaing, T;
 Hutter, J. COMPUTER PHYSICS COMMUNICATIONS, 167 (2), 103-128 (2005). 
 QUICKSTEP: Fast and accurate density functional calculations using a
 mixed Gaussian and plane waves approach.
 https://doi.org/10.1016/j.cpc.2004.12.014

 Frigo, M; Johnson, SG. 
 PROCEEDINGS OF THE IEEE, 93 (2), 216-231 (2005). 
 The design and implementation of FFTW3.
 https://doi.org/10.1109/JPROC.2004.840301

 Hartwigsen, C; Goedecker, S; Hutter, J. 
 PHYSICAL REVIEW B, 58 (7), 3641-3662 (1998). 
 Relativistic separable dual-space Gaussian pseudopotentials from H to Rn.
 https://doi.org/10.1103/PhysRevB.58.3641

 Lippert, G; Hutter, J; Parrinello, M. 
 MOLECULAR PHYSICS, 92 (3), 477-487 (1997). 
 A hybrid Gaussian and plane wave density functional scheme.
 https://doi.org/10.1080/002689797170220

 Perdew, JP; Burke, K; Ernzerhof, M. 
 PHYSICAL REVIEW LETTERS, 77 (18), 3865-3868 (1996). 
 Generalized gradient approximation made simple.
 https://doi.org/10.1103/PhysRevLett.77.3865

 Goedecker, S; Teter, M; Hutter, J. 
 PHYSICAL REVIEW B, 54 (3), 1703-1710 (1996). 
 Separable dual-space Gaussian pseudopotentials.
 https://doi.org/10.1103/PhysRevB.54.1703


 -------------------------------------------------------------------------------
 -                                                                             -
 -                                T I M I N G                                  -
 -                                                                             -
 -------------------------------------------------------------------------------
 SUBROUTINE                       CALLS  ASD         SELF TIME        TOTAL TIME
                                MAXIMUM       AVERAGE  MAXIMUM  AVERAGE  MAXIMUM
 CP2K                                 1  1.0    0.032    0.056 3599.065 3599.067
 cp_geo_opt                           1  2.0    0.002    0.003 3598.605 3598.606
 geoopt_bfgs                          1  3.0    0.018    0.022 3598.603 3598.605
 cp_eval_at                          32  4.0    0.009    0.028 3590.110 3590.117
 qs_energies                         32  6.0    0.008    0.009 3579.365 3580.030
 qs_forces                           31  5.0    0.006    0.008 3504.217 3504.219
 run_smeagol_emtrans                512  9.8 3386.237 3405.408 3427.206 3428.048
 scf_env_do_scf                      32  7.0    0.002    0.004 3181.956 3182.345
 scf_env_do_scf_inner_loop          480  8.0    0.061    4.840 3181.953 3182.340
 qs_scf_new_mos_kp                  480  9.0    0.005    0.007 3054.716 3054.923
 -------------------------------------------------------------------------------

 The number of warnings for this run is : 1
 
 -------------------------------------------------------------------------------
  **** **** ******  **  PROGRAM ENDED AT                 2023-09-13 19:21:17.284
 ***** ** ***  *** **   PROGRAM RAN ON                                 nid002310
 **    ****   ******    PROGRAM RAN BY                                    cahart
 ***** **    ** ** **   PROGRAM PROCESS ID                                218667
  **** **  *******  **  PROGRAM STOPPED IN /mnt/lustre/a2fs-work2/work/e05/e05/c
                                           ahart/postdoc/transport/AuH2/cp2k-sme
                                           agol/archer_pbe/geo_opt/NEnergReal-64
                                           _kpoints-3-3-20_omp-2_ParallelOverKNu
                                           m-3_scf-1e-6_EXTRAPOLATION-USE_PREV_P
                                           /0.5
