     113
 i =        1, E =     -3690.6210149310
 Au         1.7870000000        1.2810000000        0.0000000000
 Au         0.3090000000        2.7590000000        2.0900000000
 Au         1.7870000000        1.2810000000        4.1800000000
 Au         0.3090000000        2.7590000000        6.2700000000
 Au         4.7430000000        1.2810000000        0.0000000000
 Au         3.2650000000        2.7590000000        2.0900000000
 Au         4.7430000000        1.2810000000        4.1800000000
 Au         3.2650000000        2.7590000000        6.2700000000
 Au         7.6990000000        1.2810000000        0.0000000000
 Au         6.2210000000        2.7590000000        2.0900000000
 Au         7.6990000000        1.2810000000        4.1800000000
 Au         6.2210000000        2.7590000000        6.2700000000
 Au         1.7870000000        4.2360000000        0.0000000000
 Au         0.3090000000        5.7140000000        2.0900000000
 Au         1.7870000000        4.2360000000        4.1800000000
 Au         0.3090000000        5.7140000000        6.2700000000
 Au         4.7430000000        4.2360000000        0.0000000000
 Au         3.2650000000        5.7140000000        2.0900000000
 Au         4.7430000000        4.2360000000        4.1800000000
 Au         3.2650000000        5.7140000000        6.2700000000
 Au         7.6990000000        4.2360000000        0.0000000000
 Au         6.2210000000        5.7140000000        2.0900000000
 Au         7.6990000000        4.2360000000        4.1800000000
 Au         6.2210000000        5.7140000000        6.2700000000
 Au         1.7870000000        7.1920000000        0.0000000000
 Au         0.3090000000        8.6700000000        2.0900000000
 Au         1.7870000000        7.1920000000        4.1800000000
 Au         0.3090000000        8.6700000000        6.2700000000
 Au         4.7430000000        7.1920000000        0.0000000000
 Au         3.2650000000        8.6700000000        2.0900000000
 Au         4.7430000000        7.1920000000        4.1800000000
 Au         3.2650000000        8.6700000000        6.2700000000
 Au         7.6990000000        7.1920000000        0.0000000000
 Au         6.2210000000        8.6700000000        2.0900000000
 Au         7.6990000000        7.1920000000        4.1800000000
 Au         6.2210000000        8.6700000000        6.2700000000
 Au         1.7870000000        1.2810000000        8.3600000000
 Au         1.7870000000        4.2360000000        8.3600000000
 Au         1.7870000000        7.1920000000        8.3600000000
 Au         4.7430000000        1.2810000000        8.3600000000
 Au         4.7430000000        4.2360000000        8.3600000000
 Au         4.7430000000        7.1920000000        8.3600000000
 Au         7.6990000000        1.2810000000        8.3600000000
 Au         7.6990000000        4.2360000000        8.3600000000
 Au         7.6990000000        7.1920000000        8.3600000000
 Au         0.3090000000        2.7590000000       10.4500000000
 Au         0.3090000000        5.7140000000       10.4500000000
 Au         0.3090000000        8.6700000000       10.4500000000
 Au         3.2650000000        2.7590000000       10.4500000000
 Au         3.2650000000        5.7140000000       10.4500000000
 Au         3.2650000000        8.6700000000       10.4500000000
 Au         6.2210000000        2.7590000000       10.4500000000
 Au         6.2210000000        5.7140000000       10.4500000000
 Au         6.2210000000        8.6700000000       10.4500000000
 Au         1.7670000000        4.2150000000       12.4460000000
 Au         1.7660000000        7.2140000000       12.4460000000
 Au         4.7650000000        4.2130000000       12.4460000000
 Au         4.7670000000        7.2140000000       12.4450000000
 Au         3.2677415020        5.7158433503       14.3660235663
 Au         3.2671758179        5.7448822556       17.0939047299
  H         3.2539303014        5.7198370050       18.9330877801
  H         3.2595709953        5.7258153304       19.7946838377
 Au         3.2335229701        5.7122029871       21.6360013417
 Au         3.2635906854        5.7138175429       24.3111723295
 Au         1.7650000000        4.2130000000       26.2750000000
 Au         1.7650000000        7.2140000000       26.2740000000
 Au         4.7650000000        4.2140000000       26.2740000000
 Au         4.7650000000        7.2140000000       26.2750000000
 Au         0.3090000000        2.7590000000       28.2700000000
 Au         0.3090000000        5.7140000000       28.2700000000
 Au         0.3090000000        8.6700000000       28.2700000000
 Au         3.2650000000        2.7590000000       28.2700000000
 Au         3.2650000000        5.7140000000       28.2700000000
 Au         3.2650000000        8.6700000000       28.2700000000
 Au         6.2210000000        2.7590000000       28.2700000000
 Au         6.2210000000        5.7140000000       28.2700000000
 Au         6.2210000000        8.6700000000       28.2700000000
 Au         1.7870000000        1.2810000000       30.3600000000
 Au         0.3090000000        2.7590000000       32.4500000000
 Au         1.7870000000        1.2810000000       34.5400000000
 Au         0.3090000000        2.7590000000       36.6300000000
 Au         4.7430000000        1.2810000000       30.3600000000
 Au         3.2650000000        2.7590000000       32.4500000000
 Au         4.7430000000        1.2810000000       34.5400000000
 Au         3.2650000000        2.7590000000       36.6300000000
 Au         7.6990000000        1.2810000000       30.3600000000
 Au         6.2210000000        2.7590000000       32.4500000000
 Au         7.6990000000        1.2810000000       34.5400000000
 Au         6.2210000000        2.7590000000       36.6300000000
 Au         1.7870000000        4.2360000000       30.3600000000
 Au         0.3090000000        5.7140000000       32.4500000000
 Au         1.7870000000        4.2360000000       34.5400000000
 Au         0.3090000000        5.7140000000       36.6300000000
 Au         4.7430000000        4.2360000000       30.3600000000
 Au         3.2650000000        5.7140000000       32.4500000000
 Au         4.7430000000        4.2360000000       34.5400000000
 Au         3.2650000000        5.7140000000       36.6300000000
 Au         7.6990000000        4.2360000000       30.3600000000
 Au         6.2210000000        5.7140000000       32.4500000000
 Au         7.6990000000        4.2360000000       34.5400000000
 Au         6.2210000000        5.7140000000       36.6300000000
 Au         1.7870000000        7.1920000000       30.3600000000
 Au         0.3090000000        8.6700000000       32.4500000000
 Au         1.7870000000        7.1920000000       34.5400000000
 Au         0.3090000000        8.6700000000       36.6300000000
 Au         4.7430000000        7.1920000000       30.3600000000
 Au         3.2650000000        8.6700000000       32.4500000000
 Au         4.7430000000        7.1920000000       34.5400000000
 Au         3.2650000000        8.6700000000       36.6300000000
 Au         7.6990000000        7.1920000000       30.3600000000
 Au         6.2210000000        8.6700000000       32.4500000000
 Au         7.6990000000        7.1920000000       34.5400000000
 Au         6.2210000000        8.6700000000       36.6300000000
     113
 i =        2, E =     -3690.6210122441
 Au         1.7870000000        1.2810000000        0.0000000000
 Au         0.3090000000        2.7590000000        2.0900000000
 Au         1.7870000000        1.2810000000        4.1800000000
 Au         0.3090000000        2.7590000000        6.2700000000
 Au         4.7430000000        1.2810000000        0.0000000000
 Au         3.2650000000        2.7590000000        2.0900000000
 Au         4.7430000000        1.2810000000        4.1800000000
 Au         3.2650000000        2.7590000000        6.2700000000
 Au         7.6990000000        1.2810000000        0.0000000000
 Au         6.2210000000        2.7590000000        2.0900000000
 Au         7.6990000000        1.2810000000        4.1800000000
 Au         6.2210000000        2.7590000000        6.2700000000
 Au         1.7870000000        4.2360000000        0.0000000000
 Au         0.3090000000        5.7140000000        2.0900000000
 Au         1.7870000000        4.2360000000        4.1800000000
 Au         0.3090000000        5.7140000000        6.2700000000
 Au         4.7430000000        4.2360000000        0.0000000000
 Au         3.2650000000        5.7140000000        2.0900000000
 Au         4.7430000000        4.2360000000        4.1800000000
 Au         3.2650000000        5.7140000000        6.2700000000
 Au         7.6990000000        4.2360000000        0.0000000000
 Au         6.2210000000        5.7140000000        2.0900000000
 Au         7.6990000000        4.2360000000        4.1800000000
 Au         6.2210000000        5.7140000000        6.2700000000
 Au         1.7870000000        7.1920000000        0.0000000000
 Au         0.3090000000        8.6700000000        2.0900000000
 Au         1.7870000000        7.1920000000        4.1800000000
 Au         0.3090000000        8.6700000000        6.2700000000
 Au         4.7430000000        7.1920000000        0.0000000000
 Au         3.2650000000        8.6700000000        2.0900000000
 Au         4.7430000000        7.1920000000        4.1800000000
 Au         3.2650000000        8.6700000000        6.2700000000
 Au         7.6990000000        7.1920000000        0.0000000000
 Au         6.2210000000        8.6700000000        2.0900000000
 Au         7.6990000000        7.1920000000        4.1800000000
 Au         6.2210000000        8.6700000000        6.2700000000
 Au         1.7870000000        1.2810000000        8.3600000000
 Au         1.7870000000        4.2360000000        8.3600000000
 Au         1.7870000000        7.1920000000        8.3600000000
 Au         4.7430000000        1.2810000000        8.3600000000
 Au         4.7430000000        4.2360000000        8.3600000000
 Au         4.7430000000        7.1920000000        8.3600000000
 Au         7.6990000000        1.2810000000        8.3600000000
 Au         7.6990000000        4.2360000000        8.3600000000
 Au         7.6990000000        7.1920000000        8.3600000000
 Au         0.3090000000        2.7590000000       10.4500000000
 Au         0.3090000000        5.7140000000       10.4500000000
 Au         0.3090000000        8.6700000000       10.4500000000
 Au         3.2650000000        2.7590000000       10.4500000000
 Au         3.2650000000        5.7140000000       10.4500000000
 Au         3.2650000000        8.6700000000       10.4500000000
 Au         6.2210000000        2.7590000000       10.4500000000
 Au         6.2210000000        5.7140000000       10.4500000000
 Au         6.2210000000        8.6700000000       10.4500000000
 Au         1.7670000000        4.2150000000       12.4460000000
 Au         1.7660000000        7.2140000000       12.4460000000
 Au         4.7650000000        4.2130000000       12.4460000000
 Au         4.7670000000        7.2140000000       12.4450000000
 Au         3.2674787128        5.7150896025       14.3798150344
 Au         3.2674132697        5.7455423451       17.1017059412
  H         3.2537178996        5.7195198988       18.9275276443
  H         3.2593355197        5.7257920148       19.8002588173
 Au         3.2341148791        5.7123525627       21.6183517268
 Au         3.2630206009        5.7136344208       24.2891097496
 Au         1.7650000000        4.2130000000       26.2750000000
 Au         1.7650000000        7.2140000000       26.2740000000
 Au         4.7650000000        4.2140000000       26.2740000000
 Au         4.7650000000        7.2140000000       26.2750000000
 Au         0.3090000000        2.7590000000       28.2700000000
 Au         0.3090000000        5.7140000000       28.2700000000
 Au         0.3090000000        8.6700000000       28.2700000000
 Au         3.2650000000        2.7590000000       28.2700000000
 Au         3.2650000000        5.7140000000       28.2700000000
 Au         3.2650000000        8.6700000000       28.2700000000
 Au         6.2210000000        2.7590000000       28.2700000000
 Au         6.2210000000        5.7140000000       28.2700000000
 Au         6.2210000000        8.6700000000       28.2700000000
 Au         1.7870000000        1.2810000000       30.3600000000
 Au         0.3090000000        2.7590000000       32.4500000000
 Au         1.7870000000        1.2810000000       34.5400000000
 Au         0.3090000000        2.7590000000       36.6300000000
 Au         4.7430000000        1.2810000000       30.3600000000
 Au         3.2650000000        2.7590000000       32.4500000000
 Au         4.7430000000        1.2810000000       34.5400000000
 Au         3.2650000000        2.7590000000       36.6300000000
 Au         7.6990000000        1.2810000000       30.3600000000
 Au         6.2210000000        2.7590000000       32.4500000000
 Au         7.6990000000        1.2810000000       34.5400000000
 Au         6.2210000000        2.7590000000       36.6300000000
 Au         1.7870000000        4.2360000000       30.3600000000
 Au         0.3090000000        5.7140000000       32.4500000000
 Au         1.7870000000        4.2360000000       34.5400000000
 Au         0.3090000000        5.7140000000       36.6300000000
 Au         4.7430000000        4.2360000000       30.3600000000
 Au         3.2650000000        5.7140000000       32.4500000000
 Au         4.7430000000        4.2360000000       34.5400000000
 Au         3.2650000000        5.7140000000       36.6300000000
 Au         7.6990000000        4.2360000000       30.3600000000
 Au         6.2210000000        5.7140000000       32.4500000000
 Au         7.6990000000        4.2360000000       34.5400000000
 Au         6.2210000000        5.7140000000       36.6300000000
 Au         1.7870000000        7.1920000000       30.3600000000
 Au         0.3090000000        8.6700000000       32.4500000000
 Au         1.7870000000        7.1920000000       34.5400000000
 Au         0.3090000000        8.6700000000       36.6300000000
 Au         4.7430000000        7.1920000000       30.3600000000
 Au         3.2650000000        8.6700000000       32.4500000000
 Au         4.7430000000        7.1920000000       34.5400000000
 Au         3.2650000000        8.6700000000       36.6300000000
 Au         7.6990000000        7.1920000000       30.3600000000
 Au         6.2210000000        8.6700000000       32.4500000000
 Au         7.6990000000        7.1920000000       34.5400000000
 Au         6.2210000000        8.6700000000       36.6300000000
     113
 i =        3, E =     -3690.6204769075
 Au         1.7870000000        1.2810000000        0.0000000000
 Au         0.3090000000        2.7590000000        2.0900000000
 Au         1.7870000000        1.2810000000        4.1800000000
 Au         0.3090000000        2.7590000000        6.2700000000
 Au         4.7430000000        1.2810000000        0.0000000000
 Au         3.2650000000        2.7590000000        2.0900000000
 Au         4.7430000000        1.2810000000        4.1800000000
 Au         3.2650000000        2.7590000000        6.2700000000
 Au         7.6990000000        1.2810000000        0.0000000000
 Au         6.2210000000        2.7590000000        2.0900000000
 Au         7.6990000000        1.2810000000        4.1800000000
 Au         6.2210000000        2.7590000000        6.2700000000
 Au         1.7870000000        4.2360000000        0.0000000000
 Au         0.3090000000        5.7140000000        2.0900000000
 Au         1.7870000000        4.2360000000        4.1800000000
 Au         0.3090000000        5.7140000000        6.2700000000
 Au         4.7430000000        4.2360000000        0.0000000000
 Au         3.2650000000        5.7140000000        2.0900000000
 Au         4.7430000000        4.2360000000        4.1800000000
 Au         3.2650000000        5.7140000000        6.2700000000
 Au         7.6990000000        4.2360000000        0.0000000000
 Au         6.2210000000        5.7140000000        2.0900000000
 Au         7.6990000000        4.2360000000        4.1800000000
 Au         6.2210000000        5.7140000000        6.2700000000
 Au         1.7870000000        7.1920000000        0.0000000000
 Au         0.3090000000        8.6700000000        2.0900000000
 Au         1.7870000000        7.1920000000        4.1800000000
 Au         0.3090000000        8.6700000000        6.2700000000
 Au         4.7430000000        7.1920000000        0.0000000000
 Au         3.2650000000        8.6700000000        2.0900000000
 Au         4.7430000000        7.1920000000        4.1800000000
 Au         3.2650000000        8.6700000000        6.2700000000
 Au         7.6990000000        7.1920000000        0.0000000000
 Au         6.2210000000        8.6700000000        2.0900000000
 Au         7.6990000000        7.1920000000        4.1800000000
 Au         6.2210000000        8.6700000000        6.2700000000
 Au         1.7870000000        1.2810000000        8.3600000000
 Au         1.7870000000        4.2360000000        8.3600000000
 Au         1.7870000000        7.1920000000        8.3600000000
 Au         4.7430000000        1.2810000000        8.3600000000
 Au         4.7430000000        4.2360000000        8.3600000000
 Au         4.7430000000        7.1920000000        8.3600000000
 Au         7.6990000000        1.2810000000        8.3600000000
 Au         7.6990000000        4.2360000000        8.3600000000
 Au         7.6990000000        7.1920000000        8.3600000000
 Au         0.3090000000        2.7590000000       10.4500000000
 Au         0.3090000000        5.7140000000       10.4500000000
 Au         0.3090000000        8.6700000000       10.4500000000
 Au         3.2650000000        2.7590000000       10.4500000000
 Au         3.2650000000        5.7140000000       10.4500000000
 Au         3.2650000000        8.6700000000       10.4500000000
 Au         6.2210000000        2.7590000000       10.4500000000
 Au         6.2210000000        5.7140000000       10.4500000000
 Au         6.2210000000        8.6700000000       10.4500000000
 Au         1.7670000000        4.2150000000       12.4460000000
 Au         1.7660000000        7.2140000000       12.4460000000
 Au         4.7650000000        4.2130000000       12.4460000000
 Au         4.7670000000        7.2140000000       12.4450000000
 Au         3.2670655215        5.7139559724       14.3977316962
 Au         3.2679399153        5.7469868171       17.1132776057
  H         3.2532298844        5.7187716868       18.9135744709
  H         3.2591139290        5.7259004954       19.8025651009
 Au         3.2350217545        5.7125270678       21.5896831687
 Au         3.2621100915        5.7133502875       24.2750800319
 Au         1.7650000000        4.2130000000       26.2750000000
 Au         1.7650000000        7.2140000000       26.2740000000
 Au         4.7650000000        4.2140000000       26.2740000000
 Au         4.7650000000        7.2140000000       26.2750000000
 Au         0.3090000000        2.7590000000       28.2700000000
 Au         0.3090000000        5.7140000000       28.2700000000
 Au         0.3090000000        8.6700000000       28.2700000000
 Au         3.2650000000        2.7590000000       28.2700000000
 Au         3.2650000000        5.7140000000       28.2700000000
 Au         3.2650000000        8.6700000000       28.2700000000
 Au         6.2210000000        2.7590000000       28.2700000000
 Au         6.2210000000        5.7140000000       28.2700000000
 Au         6.2210000000        8.6700000000       28.2700000000
 Au         1.7870000000        1.2810000000       30.3600000000
 Au         0.3090000000        2.7590000000       32.4500000000
 Au         1.7870000000        1.2810000000       34.5400000000
 Au         0.3090000000        2.7590000000       36.6300000000
 Au         4.7430000000        1.2810000000       30.3600000000
 Au         3.2650000000        2.7590000000       32.4500000000
 Au         4.7430000000        1.2810000000       34.5400000000
 Au         3.2650000000        2.7590000000       36.6300000000
 Au         7.6990000000        1.2810000000       30.3600000000
 Au         6.2210000000        2.7590000000       32.4500000000
 Au         7.6990000000        1.2810000000       34.5400000000
 Au         6.2210000000        2.7590000000       36.6300000000
 Au         1.7870000000        4.2360000000       30.3600000000
 Au         0.3090000000        5.7140000000       32.4500000000
 Au         1.7870000000        4.2360000000       34.5400000000
 Au         0.3090000000        5.7140000000       36.6300000000
 Au         4.7430000000        4.2360000000       30.3600000000
 Au         3.2650000000        5.7140000000       32.4500000000
 Au         4.7430000000        4.2360000000       34.5400000000
 Au         3.2650000000        5.7140000000       36.6300000000
 Au         7.6990000000        4.2360000000       30.3600000000
 Au         6.2210000000        5.7140000000       32.4500000000
 Au         7.6990000000        4.2360000000       34.5400000000
 Au         6.2210000000        5.7140000000       36.6300000000
 Au         1.7870000000        7.1920000000       30.3600000000
 Au         0.3090000000        8.6700000000       32.4500000000
 Au         1.7870000000        7.1920000000       34.5400000000
 Au         0.3090000000        8.6700000000       36.6300000000
 Au         4.7430000000        7.1920000000       30.3600000000
 Au         3.2650000000        8.6700000000       32.4500000000
 Au         4.7430000000        7.1920000000       34.5400000000
 Au         3.2650000000        8.6700000000       36.6300000000
 Au         7.6990000000        7.1920000000       30.3600000000
 Au         6.2210000000        8.6700000000       32.4500000000
 Au         7.6990000000        7.1920000000       34.5400000000
 Au         6.2210000000        8.6700000000       36.6300000000
     113
 i =        4, E =     -3690.6204328658
 Au         1.7870000000        1.2810000000        0.0000000000
 Au         0.3090000000        2.7590000000        2.0900000000
 Au         1.7870000000        1.2810000000        4.1800000000
 Au         0.3090000000        2.7590000000        6.2700000000
 Au         4.7430000000        1.2810000000        0.0000000000
 Au         3.2650000000        2.7590000000        2.0900000000
 Au         4.7430000000        1.2810000000        4.1800000000
 Au         3.2650000000        2.7590000000        6.2700000000
 Au         7.6990000000        1.2810000000        0.0000000000
 Au         6.2210000000        2.7590000000        2.0900000000
 Au         7.6990000000        1.2810000000        4.1800000000
 Au         6.2210000000        2.7590000000        6.2700000000
 Au         1.7870000000        4.2360000000        0.0000000000
 Au         0.3090000000        5.7140000000        2.0900000000
 Au         1.7870000000        4.2360000000        4.1800000000
 Au         0.3090000000        5.7140000000        6.2700000000
 Au         4.7430000000        4.2360000000        0.0000000000
 Au         3.2650000000        5.7140000000        2.0900000000
 Au         4.7430000000        4.2360000000        4.1800000000
 Au         3.2650000000        5.7140000000        6.2700000000
 Au         7.6990000000        4.2360000000        0.0000000000
 Au         6.2210000000        5.7140000000        2.0900000000
 Au         7.6990000000        4.2360000000        4.1800000000
 Au         6.2210000000        5.7140000000        6.2700000000
 Au         1.7870000000        7.1920000000        0.0000000000
 Au         0.3090000000        8.6700000000        2.0900000000
 Au         1.7870000000        7.1920000000        4.1800000000
 Au         0.3090000000        8.6700000000        6.2700000000
 Au         4.7430000000        7.1920000000        0.0000000000
 Au         3.2650000000        8.6700000000        2.0900000000
 Au         4.7430000000        7.1920000000        4.1800000000
 Au         3.2650000000        8.6700000000        6.2700000000
 Au         7.6990000000        7.1920000000        0.0000000000
 Au         6.2210000000        8.6700000000        2.0900000000
 Au         7.6990000000        7.1920000000        4.1800000000
 Au         6.2210000000        8.6700000000        6.2700000000
 Au         1.7870000000        1.2810000000        8.3600000000
 Au         1.7870000000        4.2360000000        8.3600000000
 Au         1.7870000000        7.1920000000        8.3600000000
 Au         4.7430000000        1.2810000000        8.3600000000
 Au         4.7430000000        4.2360000000        8.3600000000
 Au         4.7430000000        7.1920000000        8.3600000000
 Au         7.6990000000        1.2810000000        8.3600000000
 Au         7.6990000000        4.2360000000        8.3600000000
 Au         7.6990000000        7.1920000000        8.3600000000
 Au         0.3090000000        2.7590000000       10.4500000000
 Au         0.3090000000        5.7140000000       10.4500000000
 Au         0.3090000000        8.6700000000       10.4500000000
 Au         3.2650000000        2.7590000000       10.4500000000
 Au         3.2650000000        5.7140000000       10.4500000000
 Au         3.2650000000        8.6700000000       10.4500000000
 Au         6.2210000000        2.7590000000       10.4500000000
 Au         6.2210000000        5.7140000000       10.4500000000
 Au         6.2210000000        8.6700000000       10.4500000000
 Au         1.7670000000        4.2150000000       12.4460000000
 Au         1.7660000000        7.2140000000       12.4460000000
 Au         4.7650000000        4.2130000000       12.4460000000
 Au         4.7670000000        7.2140000000       12.4450000000
 Au         3.2669694143        5.7137151270       14.3961249240
 Au         3.2682489835        5.7478049116       17.1128806353
  H         3.2529381665        5.7182864631       18.9068395438
  H         3.2592088018        5.7260773583       19.7992200635
 Au         3.2352985911        5.7125059423       21.5930849324
 Au         3.2618316269        5.7132913899       24.2734184615
 Au         1.7650000000        4.2130000000       26.2750000000
 Au         1.7650000000        7.2140000000       26.2740000000
 Au         4.7650000000        4.2140000000       26.2740000000
 Au         4.7650000000        7.2140000000       26.2750000000
 Au         0.3090000000        2.7590000000       28.2700000000
 Au         0.3090000000        5.7140000000       28.2700000000
 Au         0.3090000000        8.6700000000       28.2700000000
 Au         3.2650000000        2.7590000000       28.2700000000
 Au         3.2650000000        5.7140000000       28.2700000000
 Au         3.2650000000        8.6700000000       28.2700000000
 Au         6.2210000000        2.7590000000       28.2700000000
 Au         6.2210000000        5.7140000000       28.2700000000
 Au         6.2210000000        8.6700000000       28.2700000000
 Au         1.7870000000        1.2810000000       30.3600000000
 Au         0.3090000000        2.7590000000       32.4500000000
 Au         1.7870000000        1.2810000000       34.5400000000
 Au         0.3090000000        2.7590000000       36.6300000000
 Au         4.7430000000        1.2810000000       30.3600000000
 Au         3.2650000000        2.7590000000       32.4500000000
 Au         4.7430000000        1.2810000000       34.5400000000
 Au         3.2650000000        2.7590000000       36.6300000000
 Au         7.6990000000        1.2810000000       30.3600000000
 Au         6.2210000000        2.7590000000       32.4500000000
 Au         7.6990000000        1.2810000000       34.5400000000
 Au         6.2210000000        2.7590000000       36.6300000000
 Au         1.7870000000        4.2360000000       30.3600000000
 Au         0.3090000000        5.7140000000       32.4500000000
 Au         1.7870000000        4.2360000000       34.5400000000
 Au         0.3090000000        5.7140000000       36.6300000000
 Au         4.7430000000        4.2360000000       30.3600000000
 Au         3.2650000000        5.7140000000       32.4500000000
 Au         4.7430000000        4.2360000000       34.5400000000
 Au         3.2650000000        5.7140000000       36.6300000000
 Au         7.6990000000        4.2360000000       30.3600000000
 Au         6.2210000000        5.7140000000       32.4500000000
 Au         7.6990000000        4.2360000000       34.5400000000
 Au         6.2210000000        5.7140000000       36.6300000000
 Au         1.7870000000        7.1920000000       30.3600000000
 Au         0.3090000000        8.6700000000       32.4500000000
 Au         1.7870000000        7.1920000000       34.5400000000
 Au         0.3090000000        8.6700000000       36.6300000000
 Au         4.7430000000        7.1920000000       30.3600000000
 Au         3.2650000000        8.6700000000       32.4500000000
 Au         4.7430000000        7.1920000000       34.5400000000
 Au         3.2650000000        8.6700000000       36.6300000000
 Au         7.6990000000        7.1920000000       30.3600000000
 Au         6.2210000000        8.6700000000       32.4500000000
 Au         7.6990000000        7.1920000000       34.5400000000
 Au         6.2210000000        8.6700000000       36.6300000000
     113
 i =        5, E =     -3690.6203574017
 Au         1.7870000000        1.2810000000        0.0000000000
 Au         0.3090000000        2.7590000000        2.0900000000
 Au         1.7870000000        1.2810000000        4.1800000000
 Au         0.3090000000        2.7590000000        6.2700000000
 Au         4.7430000000        1.2810000000        0.0000000000