       9
 i =        0, time =        0.000, E =      -298.8439771924
 Au         0.0000000000        0.0000000000        0.0000000000
 Au         0.0000000000        0.0000000000        0.0000000000
 Au         0.0000000000        0.0000000000        0.0000000000
 Au         0.0052362519        0.0000000001        0.0060993971
 Au        -0.0133029991        0.0000000001        0.0000000006
 Au         0.0052362516        0.0000000001       -0.0060993977
 Au         0.0000000000        0.0000000000        0.0000000000
 Au         0.0000000000        0.0000000000        0.0000000000
 Au         0.0000000000        0.0000000000        0.0000000000
