SIESTA 1.3.7  -- [1.3f1 release] (04 Feb 2004)
Architecture  : CRAY
Compiler flags:  -O3 -fallow-argument-mismatch -ffree-line-length-none  -fopenmp 
PARALLEL version

* Running on   64 nodes in parallel
 OMP_NUM_THREADS environment variable=1                                        0
 MKL_NUM_THREADS environment variable=1                                        0
 OMP_NUM_THREADS environment variable=1                                        1
 MKL_NUM_THREADS environment variable=1                                        1
 Maximum number of Threads, node index:           1           0
 Maximum number of Threads, node index:           1           1
 Maximum number of Threads, node index:           1           3
 Maximum number of Threads, node index:           1          13
 Maximum number of Threads, node index:           1          21
 Maximum number of Threads, node index:           1          34
 Maximum number of Threads, node index:           1          35
 Maximum number of Threads, node index:           1          52
 Maximum number of Threads, node index:           1           8
 Maximum number of Threads, node index:           1          37
 Maximum number of Threads, node index:           1          50
 Maximum number of Threads, node index:           1          51
 Maximum number of Threads, node index:           1           5
 Maximum number of Threads, node index:           1           7
 Maximum number of Threads, node index:           1          14
 Maximum number of Threads, node index:           1          15
 Maximum number of Threads, node index:           1          42
 Maximum number of Threads, node index:           1          48
 Maximum number of Threads, node index:           1          11
 Maximum number of Threads, node index:           1          12
 Maximum number of Threads, node index:           1          18
 Maximum number of Threads, node index:           1          19
 Maximum number of Threads, node index:           1          22
 Maximum number of Threads, node index:           1          23
 Maximum number of Threads, node index:           1          24
 Maximum number of Threads, node index:           1          26
 Maximum number of Threads, node index:           1          27
 Maximum number of Threads, node index:           1          30
 Maximum number of Threads, node index:           1          32
 Maximum number of Threads, node index:           1          33
 Maximum number of Threads, node index:           1          36
 Maximum number of Threads, node index:           1          38
 Maximum number of Threads, node index:           1          40
 Maximum number of Threads, node index:           1          43
 Maximum number of Threads, node index:           1          44
 Maximum number of Threads, node index:           1          45
 Maximum number of Threads, node index:           1          46
 Maximum number of Threads, node index:           1          47
 Maximum number of Threads, node index:           1          49
 Maximum number of Threads, node index:           1          53
 Maximum number of Threads, node index:           1          54
 Maximum number of Threads, node index:           1          55
 Maximum number of Threads, node index:           1          56
 Maximum number of Threads, node index:           1          57
 Maximum number of Threads, node index:           1          59
 Maximum number of Threads, node index:           1          60
 Maximum number of Threads, node index:           1          62
 Maximum number of Threads, node index:           1          63
 In parallel region?  F
 Number of Threads in parallel region           1
 Node index, Thread index           0           0
 Maximum number of Threads, node index:           1           2
 Maximum number of Threads, node index:           1           4
 Maximum number of Threads, node index:           1           6
 Maximum number of Threads, node index:           1           9
 Maximum number of Threads, node index:           1          10
 Maximum number of Threads, node index:           1          16
 Maximum number of Threads, node index:           1          17
 Maximum number of Threads, node index:           1          20
 Maximum number of Threads, node index:           1          25
 Maximum number of Threads, node index:           1          28
 Maximum number of Threads, node index:           1          29
 Maximum number of Threads, node index:           1          31
 Maximum number of Threads, node index:           1          39
 Maximum number of Threads, node index:           1          41
 Maximum number of Threads, node index:           1          58
 Maximum number of Threads, node index:           1          61
>> Start of run:  13-SEP-2023  13:06:13

                           ***********************       
                           *  WELCOME TO SIESTA  *       
                           ***********************       

reinit: Reading from standard input
************************** Dump of input data file ****************************
#
SystemName                   mx            # Descriptive name of the system
SystemLabel                  mx            # Short name for naming files
NumberOfSpecies              2             # Number of species
NumberOfAtoms                113           # Number of atoms
%block ChemicalSpeciesLabel
 1   79   Au
 2    1   H
%endblock ChemicalSpeciesLabel
# ps
%block Ps.lmax
  Au    3
  H     3
%endblock Ps.lmax
# Basis
PAO.BasisType                split         # Type of basis ('nones', 'nonodes', 'split')
PAO.SplitNorm  0.15
PAO.EnergyShift              10 meV
PAO.BasisSize                DZP
%block PAO.Basis                           # basis
Au 2
n=6   0   2 P   1                   # n, l, Nzeta, Polarization, NzetaPol
6.0 0.0
n=5   2   1                         # n, l, Nzeta
5.5
H     2      0.00
 n=1    0    2   E      2.07      0.50
   5.75  1.5
   1.000   1.000
 n=2    1    1   E      0.89      0.01
   5.500
   1.000
%endblock PAO.Basis
# lattice vectors
LatticeConstant              1.0 Ang
%block LatticeVectors
         8.86712000        0.00000000        0.00000000
         0.00000        8.86712000        0.00000000
         0.00000000        0.00000000       38.72
%endblock LatticeVectors
# coordinates
AtomicCoordinatesFormat      Ang
%block AtomicCoordinatesAndAtomicSpecies
    1.78720903    1.28067091    0.00000000   1  Au         1
    0.30935586    2.75852409    2.09000000   1  Au         2
    1.78720903    1.28067091    4.18000000   1  Au         3
    0.30935586    2.75852409    6.27000000   1  Au         4
    4.74291537    1.28067091    0.00000000   1  Au         5
    3.26506220    2.75852409    2.09000000   1  Au         6
    4.74291537    1.28067091    4.18000000   1  Au         7
    3.26506220    2.75852409    6.27000000   1  Au         8
    7.69862172    1.28067091    0.00000000   1  Au         9
    6.22076855    2.75852409    2.09000000   1  Au        10
    7.69862172    1.28067091    4.18000000   1  Au        11
    6.22076855    2.75852409    6.27000000   1  Au        12
    1.78720903    4.23637726    0.00000000   1  Au        13
    0.30935586    5.71423043    2.09000000   1  Au        14
    1.78720903    4.23637726    4.18000000   1  Au        15
    0.30935586    5.71423043    6.27000000   1  Au        16
    4.74291537    4.23637726    0.00000000   1  Au        17
    3.26506220    5.71423043    2.09000000   1  Au        18
    4.74291537    4.23637726    4.18000000   1  Au        19
    3.26506220    5.71423043    6.27000000   1  Au        20
    7.69862172    4.23637726    0.00000000   1  Au        21
    6.22076855    5.71423043    2.09000000   1  Au        22
    7.69862172    4.23637726    4.18000000   1  Au        23
    6.22076855    5.71423043    6.27000000   1  Au        24
    1.78720903    7.19208360    0.00000000   1  Au        25
    0.30935586    8.66993678    2.09000000   1  Au        26
    1.78720903    7.19208360    4.18000000   1  Au        27
    0.30935586    8.66993678    6.27000000   1  Au        28
    4.74291537    7.19208360    0.00000000   1  Au        29
    3.26506220    8.66993678    2.09000000   1  Au        30
    4.74291537    7.19208360    4.18000000   1  Au        31
    3.26506220    8.66993678    6.27000000   1  Au        32
    7.69862172    7.19208360    0.00000000   1  Au        33
    6.22076855    8.66993678    2.09000000   1  Au        34
    7.69862172    7.19208360    4.18000000   1  Au        35
    6.22076855    8.66993678    6.27000000   1  Au        36
    1.78720903    1.28067091    8.36000000   1  Au        37
    1.78720903    4.23637726    8.36000000   1  Au        38
    1.78720903    7.19208360    8.36000000   1  Au        39
    4.74291537    1.28067091    8.36000000   1  Au        40
    4.74291537    4.23637726    8.36000000   1  Au        41
    4.74291537    7.19208360    8.36000000   1  Au        42
    7.69862172    1.28067091    8.36000000   1  Au        43
    7.69862172    4.23637726    8.36000000   1  Au        44
    7.69862172    7.19208360    8.36000000   1  Au        45
    0.30935586    2.75852409   10.45000000   1  Au        46
    0.30935586    5.71423043   10.45000000   1  Au        47
    0.30935586    8.66993678   10.45000000   1  Au        48
    3.26506220    2.75852409   10.45000000   1  Au        49
    3.26506220    5.71423043   10.45000000   1  Au        50
    3.26506220    8.66993678   10.45000000   1  Au        51
    6.22076855    2.75852409   10.45000000   1  Au        52
    6.22076855    5.71423043   10.45000000   1  Au        53
    6.22076855    8.66993678   10.45000000   1  Au        54
    1.76654230    4.21456129   12.44622226   1  Au        55
    1.76571726    7.21384751   12.44606367   1  Au        56
    4.76517827    4.21310838   12.44623947   1  Au        57
    4.76653556    7.21402638   12.44527002   1  Au        58
    3.26757000    5.71658975   14.39611266   1  Au        59
    3.26678460    5.74417782   17.05024600   1  Au        60
    3.25353201    5.72009504   18.92650888   2  H         61
    3.26037283    5.72625871   19.79615533   2  H         62
    3.23348415    5.71184569   21.67153259   1  Au        63
    3.26393973    5.71426053   24.32585498   1  Au        64
    1.76545874    4.21333306   26.27477034   1  Au        65
    1.76464334    7.21396574   26.27443287   1  Au        66
    4.76500612    4.21358582   26.27428138   1  Au        67
    4.76495772    7.21413074   26.27504918   1  Au        68
    0.30935586    2.75852409   28.27000000   1  Au        69
    0.30935586    5.71423043   28.27000000   1  Au        70
    0.30935586    8.66993678   28.27000000   1  Au        71
    3.26506220    2.75852409   28.27000000   1  Au        72
    3.26506220    5.71423043   28.27000000   1  Au        73
    3.26506220    8.66993678   28.27000000   1  Au        74
    6.22076855    2.75852409   28.27000000   1  Au        75
    6.22076855    5.71423043   28.27000000   1  Au        76
    6.22076855    8.66993678   28.27000000   1  Au        77
    1.78720903    1.28067091   30.36000000   1  Au        78
    0.30935586    2.75852409   32.45000000   1  Au        79
    1.78720903    1.28067091   34.54000000   1  Au        80
    0.30935586    2.75852409   36.63000000   1  Au        81
    4.74291537    1.28067091   30.36000000   1  Au        82
    3.26506220    2.75852409   32.45000000   1  Au        83
    4.74291537    1.28067091   34.54000000   1  Au        84
    3.26506220    2.75852409   36.63000000   1  Au        85
    7.69862172    1.28067091   30.36000000   1  Au        86
    6.22076855    2.75852409   32.45000000   1  Au        87
    7.69862172    1.28067091   34.54000000   1  Au        88
    6.22076855    2.75852409   36.63000000   1  Au        89
    1.78720903    4.23637726   30.36000000   1  Au        90
    0.30935586    5.71423043   32.45000000   1  Au        91
    1.78720903    4.23637726   34.54000000   1  Au        92
    0.30935586    5.71423043   36.63000000   1  Au        93
    4.74291537    4.23637726   30.36000000   1  Au        94
    3.26506220    5.71423043   32.45000000   1  Au        95
    4.74291537    4.23637726   34.54000000   1  Au        96
    3.26506220    5.71423043   36.63000000   1  Au        97
    7.69862172    4.23637726   30.36000000   1  Au        98
    6.22076855    5.71423043   32.45000000   1  Au        99
    7.69862172    4.23637726   34.54000000   1  Au       100
    6.22076855    5.71423043   36.63000000   1  Au       101
    1.78720903    7.19208360   30.36000000   1  Au       102
    0.30935586    8.66993678   32.45000000   1  Au       103
    1.78720903    7.19208360   34.54000000   1  Au       104
    0.30935586    8.66993678   36.63000000   1  Au       105
    4.74291537    7.19208360   30.36000000   1  Au       106
    3.26506220    8.66993678   32.45000000   1  Au       107
    4.74291537    7.19208360   34.54000000   1  Au       108
    3.26506220    8.66993678   36.63000000   1  Au       109
    7.69862172    7.19208360   30.36000000   1  Au       110
    6.22076855    8.66993678   32.45000000   1  Au       111
    7.69862172    7.19208360   34.54000000   1  Au       112
    6.22076855    8.66993678   36.63000000   1  Au       113
%endblock AtomicCoordinatesAndAtomicSpecies
# constrains in relaxation
%block GeometryConstraints
   position   from  1 to  54
   position   from  -1 to  -45
%endblock GeometryConstraints
# real space mesh grid
MeshCutoff                   800.0 Ry
%block GridCellSampling
  0.5  0.5   0.0
  0.5  0.0   0.5
  0.0  0.5   0.5
%endblock GridCellSampling
# reciprocal space
%block kgrid_Monkhorst_Pack
  3   0   0    0.0
  0   3   0    0.0
  0   0   1    0.0
%endblock kgrid_Monkhorst_Pack
#ProcessorY                   4
#BlockSize                    100
# functional
xc.functional                GGA           # 'LDA', 'GGA'
xc.authors                   PBE           # 'CA'='PZ', 'PW92', 'PBE'
# scf
MaxSCFIterations             300
DM.MixingWeight              0.02
DM.Tolerance                 1.0E-4
DM.UseSaveDM                 T
DM.NumberPulay               6             # Pulay convergency accelerator
SolutionMethod               diagon
ElectronicTemperature        300 K         # Default value
# MD options
MD.TypeOfRun                 cg            # Type of dynamics:
MD.VariableCell              false         # if vary cell
MD.NumCGsteps                300             # Number of CG steps for relaxation
MD.MaxCGDispl                0.08 Ang     # Maximum atomic displacement at one step
MD.MaxForceTol               0.01 eV/Ang   # Tolerance in the maximum force min(fx, fy, fz)
MD.MaxStressTol              0.1 Gpa
MD.FCDispl                 0.02 ang
MD.FCIR                    F
MD.FCEigenVectors          T
MD.FCfirst                 59
MD.FClast                  64
MD.FCRead                  F
MD.FCAtomRestart           46
MD.FCAxisRestart           1
#Siesta Output Flags
#Siesta Output Flags
SaveHS                       F           # Hamiltonian and overlap in sparse
SaveRHO                      T
WriteMullikenPop             1
WriteForces                  T
WriteCoorStep                T
SaveElectrostaticPotential   T             # Hartree Potential file
# ===========================================================
##For Smeagol-transort
#SetBulkTransvCell           T             # Let transport system periodical in x and y
InitTransport                F             # reset "nsc process" as siesta or not,'true' as siesta
EMTransport                  T             # NEGF method or not
NSlices                      1             # the number of layers for x in mx
PeriodicTransp               T             # mx periodic calculation or not
SaveMemTranspK               F             # F for lead's self-energy first calculated and saved in memeory;
                                           # while 'T' for calculating every scf, to save memeory
#GF Integral Setup
NEnergReal                   64             # E-points for NE, at the precence of bias
NEnergImCircle               16            # E-points  for  EQ-Circle
NEnergImLine                 16            # E-points for EQ-Line
NPoles                       16            # E-points for EQ-Pole
Delta                        1.d-6
EnergLowestBound            -150.00 eV   # lower limit for integral
FullRamp                     T
MixHamiltonian               F
ReadHamiltonian              F             # Hamiltonian, not recommended while bias
DM.MixSCF1                   T
#Bias Setup
VInitial                     0.1 eV
VFinal                       0.1 eV
NIVPoints                    0             # number of bias, excluding the first one
# information of each bias, prefix with the bias number
%block SaveBiasSteps
 0
%endblock SaveBiasSteps
# Fock shift Control
HartreeLeadsBottom          -12.19948578 eV    # pot.sh, level the VH potentials of lead and transport system
HartreeLeadsLeft             0.000  Ang    #
HartreeLeadsRight            0.000  Ang    # z starts from 0, set both 0
# Necessity for Structural Relaxation, current-induced force
EM.CalculateForces           T
#SaveDMForIV                  T
#Transport Output Flags
TrCoefficients               F             # generate '*.TRC' file or not
TransmissionOverk            T             # generate '*.TRC.k.up/down' file,containning infor about T(E,k)
TRCScaleEf                   T             # if set the Fermi level zero
NTransmPoints                200           # number of energy points
InitTransmRange             -1.0 eV
FinalTransmRange             1.0 eV
MD.TRCSkip                   0
MD.TRCSampling               5
EM.ParallelOverKNum          1
************************** End of input data file *****************************

reinit: -----------------------------------------------------------------------
reinit: System Name: mx                                                         
reinit: -----------------------------------------------------------------------
reinit: System Label: mx                  
reinit: -----------------------------------------------------------------------

initatom: Reading input for the pseudopotentials and atomic orbitals ----------
 Species number:            1  Label: Au Atomic number:          79
 Species number:            2  Label: H Atomic number:           1
Ground state valence configuration:   6s01  5d10
Reading pseudopotential information in formatted form from Au.psf
Ground state valence configuration:   1s01
Reading pseudopotential information in formatted form from H.psf
relmxkb: Read Max KB Ang. Momentum=    3 for species Au
relmxkb: Read Max KB Ang. Momentum=    3 for species H
 Warning: Empty PAO shell. l =           1
 Will have a KB projector anyway...

<basis_specs>
===============================================================================
Au                   Z=  79    Mass=  196.97        Charge=  0.0000    
Lmxo=2 Lmxkb=3     BasisType=split      Semic=F
L=0  Nsemic=0  Cnfigmx=6
          n=1  nzeta=2  polorb=1
               vcte:    0.0000    
               rinn:    0.0000    
                rcs:    6.0000      0.0000    
            lambdas:    1.0000      1.0000    
L=1  Nsemic=0  Cnfigmx=6
L=2  Nsemic=0  Cnfigmx=5
          n=1  nzeta=1  polorb=0
               vcte:    0.0000    
               rinn:    0.0000    
                rcs:    5.5000    
            lambdas:    1.0000    
-------------------------------------------------------------------------------
L=0  Nkbl=1  erefs: 0.17977+309
L=1  Nkbl=1  erefs: 0.17977+309
L=2  Nkbl=1  erefs: 0.17977+309
L=3  Nkbl=1  erefs: 0.17977+309
===============================================================================
</basis_specs>

atom: Called for Au  (Z =  79)

read_vps: Pseudopotential generation method:
read_vps: ATM 3.2.2 Troullier-Martins                       

read_vps: Pseudopotential generated from a relativistic atomic calculation
read_vps: There are spin-orbit pseudopotentials available

read_vps: Valence configuration (pseudopotential and basis set generation):
6s( 1.00) rc: 2.57
6p( 0.00) rc: 2.70
5d(10.00) rc: 2.57
5f( 0.00) rc: 2.57
Total valence charge:   11.00000

xc_check: Exchange-correlation functional:
xc_check: GGA Perdew, Burke & Ernzerhof 1996
V l=0 = -2*Zval/r beyond r=  2.8378
V l=1 = -2*Zval/r beyond r=  2.8026
V l=2 = -2*Zval/r beyond r=  2.8378
V l=3 = -2*Zval/r beyond r=  2.8378
All V_l potentials equal beyond r=  2.6659
This should be close to max(r_c) in ps generation
All pots = -2*Zval/r beyond r=  2.8378

VLOCAL1: 99.0% of the norm of Vloc inside      6.108 Ry
VLOCAL1: 99.9% of the norm of Vloc inside     13.920 Ry
atom: Maximum radius for 4*pi*r*r*local-pseudopot. charge    3.21569
atom: Maximum radius for r*vlocal+2*Zval:    2.83783
GHOST: No ghost state for L =  0
GHOST: No ghost state for L =  1
GHOST: No ghost state for L =  2
GHOST: No ghost state for L =  3

KBgen: Kleinman-Bylander projectors: 
   l= 0   rc=  3.338571   el= -0.421346   Ekb=  4.108132   kbcos=  0.281999
   l= 1   rc=  3.509744   el= -0.057987   Ekb=  2.158847   kbcos=  0.223567
   l= 2   rc=  2.909675   el= -0.508781   Ekb= -5.041211   kbcos= -0.695264
   l= 3   rc=  3.878871   el=  0.003083   Ekb= -1.533214   kbcos= -0.016134

KBgen: Total number of  Kleinman-Bylander projectors:   16
atom: -------------------------------------------------------------------------

atom: SANKEY-TYPE ORBITALS:
atom: Selected multiple-zeta basis: split     

SPLIT: Orbitals with angular momentum L= 0

SPLIT: Basis orbitals for state 6s

   izeta = 1
                 lambda =    1.000000
                     rc =    6.083298
                 energy =   -0.401153
                kinetic =    0.393167
    potential(screened) =   -0.794320
       potential(ionic) =   -8.569036

   izeta = 2
                 rmatch =    5.714728
              splitnorm =    0.150000
                 energy =   -0.341190
                kinetic =    0.593789
    potential(screened) =   -0.934979
       potential(ionic) =   -9.135222

SPLIT: Orbitals with angular momentum L= 2

SPLIT: Basis orbitals for state 5d

   izeta = 1
                 lambda =    1.000000
                     rc =    5.504393
                 energy =   -0.506115
                kinetic =    4.701767
    potential(screened) =   -5.207882
       potential(ionic) =  -15.830994

POLgen: Perturbative polarization orbital with L=  1

POLgen: Polarization orbital for state 6s

   izeta = 1
                     rc =    6.083298
                 energy =   -0.044961
                kinetic =    0.720380
    potential(screened) =   -0.765342
       potential(ionic) =   -8.110664
atom: Total number of Sankey-type orbitals: 10

atm_pop: Valence configuration(local Pseudopot. screening):
 6s( 1.00)                                                            
 6p( 0.00)                                                            
 5d(10.00)                                                            
Vna: chval, zval:   11.00000  11.00000

Vna:  Cut-off radius for the neutral-atom potential:   6.083298

atom: _________________________________________________________________________

<basis_specs>
===============================================================================
H                    Z=   1    Mass=  1.0100        Charge=  0.0000    
Lmxo=1 Lmxkb=3     BasisType=split      Semic=F
L=0  Nsemic=0  Cnfigmx=1
          n=1  nzeta=2  polorb=0
               vcte:    2.0700    
               rinn:   0.50000    
                rcs:    5.7500      1.5000    
            lambdas:    1.0000      1.0000    
L=1  Nsemic=0  Cnfigmx=2
          n=1  nzeta=1  polorb=0
               vcte:   0.89000    
               rinn:   0.10000E-01
                rcs:    5.5000    
            lambdas:    1.0000    
-------------------------------------------------------------------------------
L=0  Nkbl=1  erefs: 0.17977+309
L=1  Nkbl=1  erefs: 0.17977+309
L=2  Nkbl=1  erefs: 0.17977+309
L=3  Nkbl=1  erefs: 0.17977+309
===============================================================================
</basis_specs>

atom: Called for H   (Z =   1)

read_vps: Pseudopotential generation method:
read_vps: ATM3      Troullier-Martins                       

read_vps: Valence configuration (pseudopotential and basis set generation):
1s( 1.00) rc: 1.89
2p( 0.00) rc: 1.80
3d( 0.00) rc: 1.49
4f( 0.00) rc: 1.49
read_vps: Spin-orbit interaction is not included in this calculation
Total valence charge:    1.00000

xc_check: Exchange-correlation functional:
xc_check: GGA Perdew, Burke & Ernzerhof 1996
V l=0 = -2*Zval/r beyond r=  1.8658
V l=1 = -2*Zval/r beyond r=  1.7970
V l=2 = -2*Zval/r beyond r=  1.8196
V l=3 = -2*Zval/r beyond r=  1.8196
All V_l potentials equal beyond r=  1.8658
This should be close to max(r_c) in ps generation
All pots = -2*Zval/r beyond r=  1.8658

VLOCAL1: 99.0% of the norm of Vloc inside     12.470 Ry
VLOCAL1: 99.9% of the norm of Vloc inside     28.418 Ry
atom: Maximum radius for 4*pi*r*r*local-pseudopot. charge    2.16811
atom: Maximum radius for r*vlocal+2*Zval:    1.84256
GHOST: No ghost state for L =  0
GHOST: No ghost state for L =  1
GHOST: No ghost state for L =  2
GHOST: No ghost state for L =  3

KBgen: Kleinman-Bylander projectors: 
   l= 0   rc=  2.011274   el= -0.477200   Ekb= -1.572097   kbcos= -0.493163
   l= 1   rc=  2.141150   el=  0.001076   Ekb= -0.356432   kbcos= -0.050277
   l= 2   rc=  2.195416   el=  0.002010   Ekb= -0.177656   kbcos= -0.007774
   l= 3   rc=  2.251056   el=  0.003122   Ekb= -0.068270   kbcos= -0.002268

KBgen: Total number of  Kleinman-Bylander projectors:   16
atom: -------------------------------------------------------------------------

atom: SANKEY-TYPE ORBITALS:
atom: Selected multiple-zeta basis: split     

SPLIT: Orbitals with angular momentum L= 0

SPLIT: Basis orbitals for state 1s

   izeta = 1
                 lambda =    1.000000
                     rc =    5.752124
                 energy =   -0.469599
                kinetic =    0.919264
    potential(screened) =   -1.388863
       potential(ionic) =   -1.911599

   izeta = 2
                 rmatch =    1.527112
              splitnorm =    0.807394
                 energy =    2.126033
                kinetic =    5.261681
    potential(screened) =   -3.135649
       potential(ionic) =   -3.696632

SPLIT: Orbitals with angular momentum L= 1

SPLIT: Basis orbitals for state 2p

   izeta = 1
                 lambda =    1.000000
                     rc =    5.471469
                 energy =    0.371359
                kinetic =    0.737398
    potential(screened) =   -0.366040
       potential(ionic) =   -0.791603
atom: Total number of Sankey-type orbitals:  5

atm_pop: Valence configuration(local Pseudopot. screening):
 1s( 1.00)                                                            
 2p( 0.00)                                                            
Vna: chval, zval:    1.00000   1.00000

Vna:  Cut-off radius for the neutral-atom potential:   5.752124

atom: _________________________________________________________________________

prinput: Basis input ----------------------------------------------------------

PAO.BasisType split     

%block ChemicalSpeciesLabel
    1   79 Au                      # Species index, atomic number, species label
    2    1 H                       # Species index, atomic number, species label
%endblock ChemicalSpeciesLabel

%block PAO.Basis                 # Define Basis set
Au          2                    # Species label, number of l-shells
 n=6   0   2 P   1                   # n, l, Nzeta, Polarization, NzetaPol
   6.083      5.715   
   1.000      1.000   
 n=5   2   1                         # n, l, Nzeta 
   5.504   
   1.000   
H           2                    # Species label, number of l-shells
 n=1   0   2                         # n, l, Nzeta 
   5.752      1.527   
   1.000      1.000   
 n=2   1   1                         # n, l, Nzeta 
   5.471   
   1.000   
%endblock PAO.Basis

prinput: ----------------------------------------------------------------------


siesta: ******************** Simulation parameters ****************************
siesta:
siesta: The following are some of the parameters of the simulation.
siesta: A complete list of the parameters used, including defect values,
siesta: can be found in file out.fdf
siesta:
coor:   Atomic-coordinates input format  =     Cartesian coordinates
coor:                                          (in Angstroms)
redata: Number of spin components        =     1
redata: SpinOrbit                        =     0
redata: Long output                      =     F
redata: Number of Atomic Species         =     2
redata: Charge density info will appear in .RHO file
redata: Write Mulliken Pop.              =     Atomic and Orbital charges
redata: Write Hamilton Pop.              =     NO
redata: Mesh Cutoff                      =   800.0000  Ry
redata: Net charge of the system         =     0.0000 |e|
redata: Max. number of SCF Iter          =   300
redata: One Pulay mixing every           =     6 iterations
redata: Mix DM in first SCF step ?       =     T
redata: Write Pulay info on disk?        =     F
redata: New DM Mixing Weight             =     0.0200
redata: No kicks to SCF
redata: DM Mixing Weight for Kicks       =     0.5000
redata: DM Tolerance for SCF             =     0.000100
redata: Use continuation files for DM    =     T
redata: Neglect nonoverlap interactions  =     F
redata: Method of Calculation            =     Diagonalization
redata: Divide and Conquer               =     F
redata: Electronic Temperature           =     0.0019  Ry
redata: Fix the spin of the system       =     F
redata: Dynamics option                  =     CG coord. optimization
redata: Variable cell                    =     F
redata: Use continuation files for CG    =     F
redata: Maximum number of CG moves       =   300
redata: Max atomic displ per move        =     0.1512  Bohr
redata: Force tolerance                  =     0.0004  Ry/Bohr
redata: ***********************************************************************

siesta: Atomic coordinates (Bohr) and species
siesta:      3.37734   2.42012   0.00000  1        1
siesta:      0.58460   5.21286   3.94953  1        2
siesta:      3.37734   2.42012   7.89906  1        3
siesta:      0.58460   5.21286  11.84859  1        4
siesta:      8.96281   2.42012   0.00000  1        5
siesta:      6.17008   5.21286   3.94953  1        6
siesta:      8.96281   2.42012   7.89906  1        7
siesta:      6.17008   5.21286  11.84859  1        8
siesta:     14.54829   2.42012   0.00000  1        9
siesta:     11.75555   5.21286   3.94953  1       10
siesta:     14.54829   2.42012   7.89906  1       11
siesta:     11.75555   5.21286  11.84859  1       12
siesta:      3.37734   8.00560   0.00000  1       13
siesta:      0.58460  10.79833   3.94953  1       14
siesta:      3.37734   8.00560   7.89906  1       15
siesta:      0.58460  10.79833  11.84859  1       16
siesta:      8.96281   8.00560   0.00000  1       17
siesta:      6.17008  10.79833   3.94953  1       18
siesta:      8.96281   8.00560   7.89906  1       19
siesta:      6.17008  10.79833  11.84859  1       20
siesta:     14.54829   8.00560   0.00000  1       21
siesta:     11.75555  10.79833   3.94953  1       22
siesta:     14.54829   8.00560   7.89906  1       23
siesta:     11.75555  10.79833  11.84859  1       24
siesta:      3.37734  13.59107   0.00000  1       25
siesta:      0.58460  16.38381   3.94953  1       26
siesta:      3.37734  13.59107   7.89906  1       27
siesta:      0.58460  16.38381  11.84859  1       28
siesta:      8.96281  13.59107   0.00000  1       29
siesta:      6.17008  16.38381   3.94953  1       30
siesta:      8.96281  13.59107   7.89906  1       31
siesta:      6.17008  16.38381  11.84859  1       32
siesta:     14.54829  13.59107   0.00000  1       33
siesta:     11.75555  16.38381   3.94953  1       34
siesta:     14.54829  13.59107   7.89906  1       35
siesta:     11.75555  16.38381  11.84859  1       36
siesta:      3.37734   2.42012  15.79812  1       37
siesta:      3.37734   8.00560  15.79812  1       38
siesta:      3.37734  13.59107  15.79812  1       39
siesta:      8.96281   2.42012  15.79812  1       40
siesta:      8.96281   8.00560  15.79812  1       41
siesta:      8.96281  13.59107  15.79812  1       42
siesta:     14.54829   2.42012  15.79812  1       43
siesta:     14.54829   8.00560  15.79812  1       44
siesta:     14.54829  13.59107  15.79812  1       45
siesta:      0.58460   5.21286  19.74765  1       46
siesta:      0.58460  10.79833  19.74765  1       47
siesta:      0.58460  16.38381  19.74765  1       48
siesta:      6.17008   5.21286  19.74765  1       49
siesta:      6.17008  10.79833  19.74765  1       50
siesta:      6.17008  16.38381  19.74765  1       51
siesta:     11.75555   5.21286  19.74765  1       52
siesta:     11.75555  10.79833  19.74765  1       53
siesta:     11.75555  16.38381  19.74765  1       54
siesta:      3.33828   7.96437  23.51996  1       55
siesta:      3.33672  13.63220  23.51966  1       56
siesta:      9.00489   7.96162  23.51999  1       57
siesta:      9.00745  13.63254  23.51816  1       58
siesta:      6.17481  10.80279  27.20472  1       59
siesta:      6.17333  10.85493  32.22031  1       60
siesta:      6.14829  10.80942  35.76593  2       61
siesta:      6.16121  10.82106  37.40933  2       62
siesta:      6.11040  10.79383  40.95328  1       63
siesta:      6.16795  10.79839  45.96922  1       64
siesta:      3.33623   7.96205  49.65214  1       65
siesta:      3.33469  13.63242  49.65150  1       66
siesta:      9.00456   7.96253  49.65122  1       67
siesta:      9.00447  13.63274  49.65267  1       68
siesta:      0.58460   5.21286  53.42258  1       69
siesta:      0.58460  10.79833  53.42258  1       70
siesta:      0.58460  16.38381  53.42258  1       71
siesta:      6.17008   5.21286  53.42258  1       72
siesta:      6.17008  10.79833  53.42258  1       73
siesta:      6.17008  16.38381  53.42258  1       74
siesta:     11.75555   5.21286  53.42258  1       75
siesta:     11.75555  10.79833  53.42258  1       76
siesta:     11.75555  16.38381  53.42258  1       77
siesta:      3.37734   2.42012  57.37211  1       78
siesta:      0.58460   5.21286  61.32164  1       79
siesta:      3.37734   2.42012  65.27117  1       80
siesta:      0.58460   5.21286  69.22070  1       81
siesta:      8.96281   2.42012  57.37211  1       82
siesta:      6.17008   5.21286  61.32164  1       83
siesta:      8.96281   2.42012  65.27117  1       84
siesta:      6.17008   5.21286  69.22070  1       85
siesta:     14.54829   2.42012  57.37211  1       86
siesta:     11.75555   5.21286  61.32164  1       87
siesta:     14.54829   2.42012  65.27117  1       88
siesta:     11.75555   5.21286  69.22070  1       89
siesta:      3.37734   8.00560  57.37211  1       90
siesta:      0.58460  10.79833  61.32164  1       91
siesta:      3.37734   8.00560  65.27117  1       92
siesta:      0.58460  10.79833  69.22070  1       93
siesta:      8.96281   8.00560  57.37211  1       94
siesta:      6.17008  10.79833  61.32164  1       95
siesta:      8.96281   8.00560  65.27117  1       96
siesta:      6.17008  10.79833  69.22070  1       97
siesta:     14.54829   8.00560  57.37211  1       98
siesta:     11.75555  10.79833  61.32164  1       99
siesta:     14.54829   8.00560  65.27117  1      100
siesta:     11.75555  10.79833  69.22070  1      101
siesta:      3.37734  13.59107  57.37211  1      102
siesta:      0.58460  16.38381  61.32164  1      103
siesta:      3.37734  13.59107  65.27117  1      104
siesta:      0.58460  16.38381  69.22070  1      105
siesta:      8.96281  13.59107  57.37211  1      106
siesta:      6.17008  16.38381  61.32164  1      107
siesta:      8.96281  13.59107  65.27117  1      108
siesta:      6.17008  16.38381  69.22070  1      109
siesta:     14.54829  13.59107  57.37211  1      110
siesta:     11.75555  16.38381  61.32164  1      111
siesta:     14.54829  13.59107  65.27117  1      112
siesta:     11.75555  16.38381  69.22070  1      113

initatomlists: Number of atoms, orbitals, and projectors:    113  1120  1808

siesta: System type = bulk      
 Nodes, Orbitals          64        1120
 blocksizedefault           8

* ProcessorY, Blocksize:    8   8


siesta: k-grid: Number of k-points =     6
siesta: k-grid: Cutoff             =    13.301 Ang
siesta: k-grid: Supercell and displacements
siesta: k-grid:    3   0   0      0.000
siesta: k-grid:    0   3   0      0.000
siesta: k-grid:    0   0   1      0.000
siesta: overlap:  rmaxh   veclen  direction
siesta: overlap:  19.9243 16.7564   1
siesta: overlap:  rmaxh   veclen  direction
siesta: overlap:  19.9243 16.7564   2
siesta: overlap:  rmaxh   veclen  direction
siesta: overlap:  19.9243 73.1702   3
 label:           1 Au                             1 s      
 label:           2 Au                             1 s      
 label:           3 Au                             1 dxy    
 label:           4 Au                             1 dyz    
 label:           5 Au                             1 dz2    
 label:           6 Au                             1 dxz    
 label:           7 Au                             1 dx2-y2 
 label:           8 Au                             1 Ppy    
 label:           9 Au                             1 Ppz    
 label:          10 Au                             1 Ppx    
 label:          11 Au                             2 s      
 label:          12 Au                             2 s      
 label:          13 Au                             2 dxy    
 label:          14 Au                             2 dyz    
 label:          15 Au                             2 dz2    
 label:          16 Au                             2 dxz    
 label:          17 Au                             2 dx2-y2 
 label:          18 Au                             2 Ppy    
 label:          19 Au                             2 Ppz    
 label:          20 Au                             2 Ppx    
 label:          21 Au                             3 s      
 label:          22 Au                             3 s      
 label:          23 Au                             3 dxy    
 label:          24 Au                             3 dyz    
 label:          25 Au                             3 dz2    
 label:          26 Au                             3 dxz    
 label:          27 Au                             3 dx2-y2 
 label:          28 Au                             3 Ppy    
 label:          29 Au                             3 Ppz    
 label:          30 Au                             3 Ppx    
 label:          31 Au                             4 s      
 label:          32 Au                             4 s      
 label:          33 Au                             4 dxy    
 label:          34 Au                             4 dyz    
 label:          35 Au                             4 dz2    
 label:          36 Au                             4 dxz    
 label:          37 Au                             4 dx2-y2 
 label:          38 Au                             4 Ppy    
 label:          39 Au                             4 Ppz    
 label:          40 Au                             4 Ppx    
 label:          41 Au                             5 s      
 label:          42 Au                             5 s      
 label:          43 Au                             5 dxy    
 label:          44 Au                             5 dyz    
 label:          45 Au                             5 dz2    
 label:          46 Au                             5 dxz    
 label:          47 Au                             5 dx2-y2 
 label:          48 Au                             5 Ppy    
 label:          49 Au                             5 Ppz    
 label:          50 Au                             5 Ppx    
 label:          51 Au                             6 s      
 label:          52 Au                             6 s      
 label:          53 Au                             6 dxy    
 label:          54 Au                             6 dyz    
 label:          55 Au                             6 dz2    
 label:          56 Au                             6 dxz    
 label:          57 Au                             6 dx2-y2 
 label:          58 Au                             6 Ppy    
 label:          59 Au                             6 Ppz    
 label:          60 Au                             6 Ppx    
 label:          61 Au                             7 s      
 label:          62 Au                             7 s      
 label:          63 Au                             7 dxy    
 label:          64 Au                             7 dyz    
 label:          65 Au                             7 dz2    
 label:          66 Au                             7 dxz    
 label:          67 Au                             7 dx2-y2 
 label:          68 Au                             7 Ppy    
 label:          69 Au                             7 Ppz    
 label:          70 Au                             7 Ppx    
 label:          71 Au                             8 s      
 label:          72 Au                             8 s      
 label:          73 Au                             8 dxy    
 label:          74 Au                             8 dyz    
 label:          75 Au                             8 dz2    
 label:          76 Au                             8 dxz    
 label:          77 Au                             8 dx2-y2 
 label:          78 Au                             8 Ppy    
 label:          79 Au                             8 Ppz    
 label:          80 Au                             8 Ppx    
 label:          81 Au                             9 s      
 label:          82 Au                             9 s      
 label:          83 Au                             9 dxy    
 label:          84 Au                             9 dyz    
 label:          85 Au                             9 dz2    
 label:          86 Au                             9 dxz    
 label:          87 Au                             9 dx2-y2 
 label:          88 Au                             9 Ppy    
 label:          89 Au                             9 Ppz    
 label:          90 Au                             9 Ppx    
 label:          91 Au                            10 s      
 label:          92 Au                            10 s      
 label:          93 Au                            10 dxy    
 label:          94 Au                            10 dyz    
 label:          95 Au                            10 dz2    
 label:          96 Au                            10 dxz    
 label:          97 Au                            10 dx2-y2 
 label:          98 Au                            10 Ppy    
 label:          99 Au                            10 Ppz    
 label:         100 Au                            10 Ppx    
 label:         101 Au                            11 s      
 label:         102 Au                            11 s      
 label:         103 Au                            11 dxy    
 label:         104 Au                            11 dyz    
 label:         105 Au                            11 dz2    
 label:         106 Au                            11 dxz    
 label:         107 Au                            11 dx2-y2 
 label:         108 Au                            11 Ppy    
 label:         109 Au                            11 Ppz    
 label:         110 Au                            11 Ppx    
 label:         111 Au                            12 s      
 label:         112 Au                            12 s      
 label:         113 Au                            12 dxy    
 label:         114 Au                            12 dyz    
 label:         115 Au                            12 dz2    
 label:         116 Au                            12 dxz    
 label:         117 Au                            12 dx2-y2 
 label:         118 Au                            12 Ppy    
 label:         119 Au                            12 Ppz    
 label:         120 Au                            12 Ppx    
 label:         121 Au                            13 s      
 label:         122 Au                            13 s      
 label:         123 Au                            13 dxy    
 label:         124 Au                            13 dyz    
 label:         125 Au                            13 dz2    
 label:         126 Au                            13 dxz    
 label:         127 Au                            13 dx2-y2 
 label:         128 Au                            13 Ppy    
 label:         129 Au                            13 Ppz    
 label:         130 Au                            13 Ppx    
 label:         131 Au                            14 s      
 label:         132 Au                            14 s      
 label:         133 Au                            14 dxy    
 label:         134 Au                            14 dyz    
 label:         135 Au                            14 dz2    
 label:         136 Au                            14 dxz    
 label:         137 Au                            14 dx2-y2 
 label:         138 Au                            14 Ppy    
 label:         139 Au                            14 Ppz    
 label:         140 Au                            14 Ppx    
 label:         141 Au                            15 s      
 label:         142 Au                            15 s      
 label:         143 Au                            15 dxy    
 label:         144 Au                            15 dyz    
 label:         145 Au                            15 dz2    
 label:         146 Au                            15 dxz    
 label:         147 Au                            15 dx2-y2 
 label:         148 Au                            15 Ppy    
 label:         149 Au                            15 Ppz    
 label:         150 Au                            15 Ppx    
 label:         151 Au                            16 s      
 label:         152 Au                            16 s      
 label:         153 Au                            16 dxy    
 label:         154 Au                            16 dyz    
 label:         155 Au                            16 dz2    
 label:         156 Au                            16 dxz    
 label:         157 Au                            16 dx2-y2 
 label:         158 Au                            16 Ppy    
 label:         159 Au                            16 Ppz    
 label:         160 Au                            16 Ppx    
 label:         161 Au                            17 s      
 label:         162 Au                            17 s      
 label:         163 Au                            17 dxy    
 label:         164 Au                            17 dyz    
 label:         165 Au                            17 dz2    
 label:         166 Au                            17 dxz    
 label:         167 Au                            17 dx2-y2 
 label:         168 Au                            17 Ppy    
 label:         169 Au                            17 Ppz    
 label:         170 Au                            17 Ppx    
 label:         171 Au                            18 s      
 label:         172 Au                            18 s      
 label:         173 Au                            18 dxy    
 label:         174 Au                            18 dyz    
 label:         175 Au                            18 dz2    
 label:         176 Au                            18 dxz    
 label:         177 Au                            18 dx2-y2 
 label:         178 Au                            18 Ppy    
 label:         179 Au                            18 Ppz    
 label:         180 Au                            18 Ppx    
 label:         181 Au                            19 s      
 label:         182 Au                            19 s      
 label:         183 Au                            19 dxy    
 label:         184 Au                            19 dyz    
 label:         185 Au                            19 dz2    
 label:         186 Au                            19 dxz    
 label:         187 Au                            19 dx2-y2 
 label:         188 Au                            19 Ppy    
 label:         189 Au                            19 Ppz    
 label:         190 Au                            19 Ppx    
 label:         191 Au                            20 s      
 label:         192 Au                            20 s      
 label:         193 Au                            20 dxy    
 label:         194 Au                            20 dyz    
 label:         195 Au                            20 dz2    
 label:         196 Au                            20 dxz    
 label:         197 Au                            20 dx2-y2 
 label:         198 Au                            20 Ppy    
 label:         199 Au                            20 Ppz    
 label:         200 Au                            20 Ppx    
 label:         201 Au                            21 s      
 label:         202 Au                            21 s      
 label:         203 Au                            21 dxy    
 label:         204 Au                            21 dyz    
 label:         205 Au                            21 dz2    
 label:         206 Au                            21 dxz    
 label:         207 Au                            21 dx2-y2 
 label:         208 Au                            21 Ppy    
 label:         209 Au                            21 Ppz    
 label:         210 Au                            21 Ppx    
 label:         211 Au                            22 s      
 label:         212 Au                            22 s      
 label:         213 Au                            22 dxy    
 label:         214 Au                            22 dyz    
 label:         215 Au                            22 dz2    
 label:         216 Au                            22 dxz    
 label:         217 Au                            22 dx2-y2 
 label:         218 Au                            22 Ppy    
 label:         219 Au                            22 Ppz    
 label:         220 Au                            22 Ppx    
 label:         221 Au                            23 s      
 label:         222 Au                            23 s      
 label:         223 Au                            23 dxy    
 label:         224 Au                            23 dyz    
 label:         225 Au                            23 dz2    
 label:         226 Au                            23 dxz    
 label:         227 Au                            23 dx2-y2 
 label:         228 Au                            23 Ppy    
 label:         229 Au                            23 Ppz    
 label:         230 Au                            23 Ppx    
 label:         231 Au                            24 s      
 label:         232 Au                            24 s      
 label:         233 Au                            24 dxy    
 label:         234 Au                            24 dyz    
 label:         235 Au                            24 dz2    
 label:         236 Au                            24 dxz    
 label:         237 Au                            24 dx2-y2 
 label:         238 Au                            24 Ppy    
 label:         239 Au                            24 Ppz    
 label:         240 Au                            24 Ppx    
 label:         241 Au                            25 s      
 label:         242 Au                            25 s      
 label:         243 Au                            25 dxy    
 label:         244 Au                            25 dyz    
 label:         245 Au                            25 dz2    
 label:         246 Au                            25 dxz    
 label:         247 Au                            25 dx2-y2 
 label:         248 Au                            25 Ppy    
 label:         249 Au                            25 Ppz    
 label:         250 Au                            25 Ppx    
 label:         251 Au                            26 s      
 label:         252 Au                            26 s      
 label:         253 Au                            26 dxy    
 label:         254 Au                            26 dyz    
 label:         255 Au                            26 dz2    
 label:         256 Au                            26 dxz    
 label:         257 Au                            26 dx2-y2 
 label:         258 Au                            26 Ppy    
 label:         259 Au                            26 Ppz    
 label:         260 Au                            26 Ppx    
 label:         261 Au                            27 s      
 label:         262 Au                            27 s      
 label:         263 Au                            27 dxy    
 label:         264 Au                            27 dyz    
 label:         265 Au                            27 dz2    
 label:         266 Au                            27 dxz    
 label:         267 Au                            27 dx2-y2 
 label:         268 Au                            27 Ppy    
 label:         269 Au                            27 Ppz    
 label:         270 Au                            27 Ppx    
 label:         271 Au                            28 s      
 label:         272 Au                            28 s      
 label:         273 Au                            28 dxy    
 label:         274 Au                            28 dyz    
 label:         275 Au                            28 dz2    
 label:         276 Au                            28 dxz    
 label:         277 Au                            28 dx2-y2 
 label:         278 Au                            28 Ppy    
 label:         279 Au                            28 Ppz    
 label:         280 Au                            28 Ppx    
 label:         281 Au                            29 s      
 label:         282 Au                            29 s      
 label:         283 Au                            29 dxy    
 label:         284 Au                            29 dyz    
 label:         285 Au                            29 dz2    
 label:         286 Au                            29 dxz    
 label:         287 Au                            29 dx2-y2 
 label:         288 Au                            29 Ppy    
 label:         289 Au                            29 Ppz    
 label:         290 Au                            29 Ppx    
 label:         291 Au                            30 s      
 label:         292 Au                            30 s      
 label:         293 Au                            30 dxy    
 label:         294 Au                            30 dyz    
 label:         295 Au                            30 dz2    
 label:         296 Au                            30 dxz    
 label:         297 Au                            30 dx2-y2 
 label:         298 Au                            30 Ppy    
 label:         299 Au                            30 Ppz    
 label:         300 Au                            30 Ppx    
 label:         301 Au                            31 s      
 label:         302 Au                            31 s      
 label:         303 Au                            31 dxy    
 label:         304 Au                            31 dyz    
 label:         305 Au                            31 dz2    
 label:         306 Au                            31 dxz    
 label:         307 Au                            31 dx2-y2 
 label:         308 Au                            31 Ppy    
 label:         309 Au                            31 Ppz    
 label:         310 Au                            31 Ppx    
 label:         311 Au                            32 s      
 label:         312 Au                            32 s      
 label:         313 Au                            32 dxy    
 label:         314 Au                            32 dyz    
 label:         315 Au                            32 dz2    
 label:         316 Au                            32 dxz    
 label:         317 Au                            32 dx2-y2 
 label:         318 Au                            32 Ppy    
 label:         319 Au                            32 Ppz    
 label:         320 Au                            32 Ppx    
 label:         321 Au                            33 s      
 label:         322 Au                            33 s      
 label:         323 Au                            33 dxy    
 label:         324 Au                            33 dyz    
 label:         325 Au                            33 dz2    
 label:         326 Au                            33 dxz    
 label:         327 Au                            33 dx2-y2 
 label:         328 Au                            33 Ppy    
 label:         329 Au                            33 Ppz    
 label:         330 Au                            33 Ppx    
 label:         331 Au                            34 s      
 label:         332 Au                            34 s      
 label:         333 Au                            34 dxy    
 label:         334 Au                            34 dyz    
 label:         335 Au                            34 dz2    
 label:         336 Au                            34 dxz    
 label:         337 Au                            34 dx2-y2 
 label:         338 Au                            34 Ppy    
 label:         339 Au                            34 Ppz    
 label:         340 Au                            34 Ppx    
 label:         341 Au                            35 s      
 label:         342 Au                            35 s      
 label:         343 Au                            35 dxy    
 label:         344 Au                            35 dyz    
 label:         345 Au                            35 dz2    
 label:         346 Au                            35 dxz    
 label:         347 Au                            35 dx2-y2 
 label:         348 Au                            35 Ppy    
 label:         349 Au                            35 Ppz    
 label:         350 Au                            35 Ppx    
 label:         351 Au                            36 s      
 label:         352 Au                            36 s      
 label:         353 Au                            36 dxy    
 label:         354 Au                            36 dyz    
 label:         355 Au                            36 dz2    
 label:         356 Au                            36 dxz    
 label:         357 Au                            36 dx2-y2 
 label:         358 Au                            36 Ppy    
 label:         359 Au                            36 Ppz    
 label:         360 Au                            36 Ppx    
 label:         361 Au                            37 s      
 label:         362 Au                            37 s      
 label:         363 Au                            37 dxy    
 label:         364 Au                            37 dyz    
 label:         365 Au                            37 dz2    
 label:         366 Au                            37 dxz    
 label:         367 Au                            37 dx2-y2 
 label:         368 Au                            37 Ppy    
 label:         369 Au                            37 Ppz    
 label:         370 Au                            37 Ppx    
 label:         371 Au                            38 s      
 label:         372 Au                            38 s      
 label:         373 Au                            38 dxy    
 label:         374 Au                            38 dyz    
 label:         375 Au                            38 dz2    
 label:         376 Au                            38 dxz    
 label:         377 Au                            38 dx2-y2 
 label:         378 Au                            38 Ppy    
 label:         379 Au                            38 Ppz    
 label:         380 Au                            38 Ppx    
 label:         381 Au                            39 s      
 label:         382 Au                            39 s      
 label:         383 Au                            39 dxy    
 label:         384 Au                            39 dyz    
 label:         385 Au                            39 dz2    
 label:         386 Au                            39 dxz    
 label:         387 Au                            39 dx2-y2 
 label:         388 Au                            39 Ppy    
 label:         389 Au                            39 Ppz    
 label:         390 Au                            39 Ppx    
 label:         391 Au                            40 s      
 label:         392 Au                            40 s      
 label:         393 Au                            40 dxy    
 label:         394 Au                            40 dyz    
 label:         395 Au                            40 dz2    
 label:         396 Au                            40 dxz    
 label:         397 Au                            40 dx2-y2 
 label:         398 Au                            40 Ppy    
 label:         399 Au                            40 Ppz    
 label:         400 Au                            40 Ppx    
 label:         401 Au                            41 s      
 label:         402 Au                            41 s      
 label:         403 Au                            41 dxy    
 label:         404 Au                            41 dyz    
 label:         405 Au                            41 dz2    
 label:         406 Au                            41 dxz    
 label:         407 Au                            41 dx2-y2 
 label:         408 Au                            41 Ppy    
 label:         409 Au                            41 Ppz    
 label:         410 Au                            41 Ppx    
 label:         411 Au                            42 s      
 label:         412 Au                            42 s      
 label:         413 Au                            42 dxy    
 label:         414 Au                            42 dyz    
 label:         415 Au                            42 dz2    
 label:         416 Au                            42 dxz    
 label:         417 Au                            42 dx2-y2 
 label:         418 Au                            42 Ppy    
 label:         419 Au                            42 Ppz    
 label:         420 Au                            42 Ppx    
 label:         421 Au                            43 s      
 label:         422 Au                            43 s      
 label:         423 Au                            43 dxy    
 label:         424 Au                            43 dyz    
 label:         425 Au                            43 dz2    
 label:         426 Au                            43 dxz    
 label:         427 Au                            43 dx2-y2 
 label:         428 Au                            43 Ppy    
 label:         429 Au                            43 Ppz    
 label:         430 Au                            43 Ppx    
 label:         431 Au                            44 s      
 label:         432 Au                            44 s      
 label:         433 Au                            44 dxy    
 label:         434 Au                            44 dyz    
 label:         435 Au                            44 dz2    
 label:         436 Au                            44 dxz    
 label:         437 Au                            44 dx2-y2 
 label:         438 Au                            44 Ppy    
 label:         439 Au                            44 Ppz    
 label:         440 Au                            44 Ppx    
 label:         441 Au                            45 s      
 label:         442 Au                            45 s      
 label:         443 Au                            45 dxy    
 label:         444 Au                            45 dyz    
 label:         445 Au                            45 dz2    
 label:         446 Au                            45 dxz    
 label:         447 Au                            45 dx2-y2 
 label:         448 Au                            45 Ppy    
 label:         449 Au                            45 Ppz    
 label:         450 Au                            45 Ppx    
 label:         451 Au                            46 s      
 label:         452 Au                            46 s      
 label:         453 Au                            46 dxy    
 label:         454 Au                            46 dyz    
 label:         455 Au                            46 dz2    
 label:         456 Au                            46 dxz    
 label:         457 Au                            46 dx2-y2 
 label:         458 Au                            46 Ppy    
 label:         459 Au                            46 Ppz    
 label:         460 Au                            46 Ppx    
 label:         461 Au                            47 s      
 label:         462 Au                            47 s      
 label:         463 Au                            47 dxy    
 label:         464 Au                            47 dyz    
 label:         465 Au                            47 dz2    
 label:         466 Au                            47 dxz    
 label:         467 Au                            47 dx2-y2 
 label:         468 Au                            47 Ppy    
 label:         469 Au                            47 Ppz    
 label:         470 Au                            47 Ppx    
 label:         471 Au                            48 s      
 label:         472 Au                            48 s      
 label:         473 Au                            48 dxy    
 label:         474 Au                            48 dyz    
 label:         475 Au                            48 dz2    
 label:         476 Au                            48 dxz    
 label:         477 Au                            48 dx2-y2 
 label:         478 Au                            48 Ppy    
 label:         479 Au                            48 Ppz    
 label:         480 Au                            48 Ppx    
 label:         481 Au                            49 s      
 label:         482 Au                            49 s      
 label:         483 Au                            49 dxy    
 label:         484 Au                            49 dyz    
 label:         485 Au                            49 dz2    
 label:         486 Au                            49 dxz    
 label:         487 Au                            49 dx2-y2 
 label:         488 Au                            49 Ppy    
 label:         489 Au                            49 Ppz    
 label:         490 Au                            49 Ppx    
 label:         491 Au                            50 s      
 label:         492 Au                            50 s      
 label:         493 Au                            50 dxy    
 label:         494 Au                            50 dyz    
 label:         495 Au                            50 dz2    
 label:         496 Au                            50 dxz    
 label:         497 Au                            50 dx2-y2 
 label:         498 Au                            50 Ppy    
 label:         499 Au                            50 Ppz    
 label:         500 Au                            50 Ppx    
 label:         501 Au                            51 s      
 label:         502 Au                            51 s      
 label:         503 Au                            51 dxy    
 label:         504 Au                            51 dyz    
 label:         505 Au                            51 dz2    
 label:         506 Au                            51 dxz    
 label:         507 Au                            51 dx2-y2 
 label:         508 Au                            51 Ppy    
 label:         509 Au                            51 Ppz    
 label:         510 Au                            51 Ppx    
 label:         511 Au                            52 s      
 label:         512 Au                            52 s      
 label:         513 Au                            52 dxy    
 label:         514 Au                            52 dyz    
 label:         515 Au                            52 dz2    
 label:         516 Au                            52 dxz    
 label:         517 Au                            52 dx2-y2 
 label:         518 Au                            52 Ppy    
 label:         519 Au                            52 Ppz    
 label:         520 Au                            52 Ppx    
 label:         521 Au                            53 s      
 label:         522 Au                            53 s      
 label:         523 Au                            53 dxy    
 label:         524 Au                            53 dyz    
 label:         525 Au                            53 dz2    
 label:         526 Au                            53 dxz    
 label:         527 Au                            53 dx2-y2 
 label:         528 Au                            53 Ppy    
 label:         529 Au                            53 Ppz    
 label:         530 Au                            53 Ppx    
 label:         531 Au                            54 s      
 label:         532 Au                            54 s      
 label:         533 Au                            54 dxy    
 label:         534 Au                            54 dyz    
 label:         535 Au                            54 dz2    
 label:         536 Au                            54 dxz    
 label:         537 Au                            54 dx2-y2 
 label:         538 Au                            54 Ppy    
 label:         539 Au                            54 Ppz    
 label:         540 Au                            54 Ppx    
 label:         541 Au                            55 s      
 label:         542 Au                            55 s      
 label:         543 Au                            55 dxy    
 label:         544 Au                            55 dyz    
 label:         545 Au                            55 dz2    
 label:         546 Au                            55 dxz    
 label:         547 Au                            55 dx2-y2 
 label:         548 Au                            55 Ppy    
 label:         549 Au                            55 Ppz    
 label:         550 Au                            55 Ppx    
 label:         551 Au                            56 s      
 label:         552 Au                            56 s      
 label:         553 Au                            56 dxy    
 label:         554 Au                            56 dyz    
 label:         555 Au                            56 dz2    
 label:         556 Au                            56 dxz    
 label:         557 Au                            56 dx2-y2 
 label:         558 Au                            56 Ppy    
 label:         559 Au                            56 Ppz    
 label:         560 Au                            56 Ppx    
 label:         561 Au                            57 s      
 label:         562 Au                            57 s      
 label:         563 Au                            57 dxy    
 label:         564 Au                            57 dyz    
 label:         565 Au                            57 dz2    
 label:         566 Au                            57 dxz    
 label:         567 Au                            57 dx2-y2 
 label:         568 Au                            57 Ppy    
 label:         569 Au                            57 Ppz    
 label:         570 Au                            57 Ppx    
 label:         571 Au                            58 s      
 label:         572 Au                            58 s      
 label:         573 Au                            58 dxy    
 label:         574 Au                            58 dyz    
 label:         575 Au                            58 dz2    
 label:         576 Au                            58 dxz    
 label:         577 Au                            58 dx2-y2 
 label:         578 Au                            58 Ppy    
 label:         579 Au                            58 Ppz    
 label:         580 Au                            58 Ppx    
 label:         581 Au                            59 s      
 label:         582 Au                            59 s      
 label:         583 Au                            59 dxy    
 label:         584 Au                            59 dyz    
 label:         585 Au                            59 dz2    
 label:         586 Au                            59 dxz    
 label:         587 Au                            59 dx2-y2 
 label:         588 Au                            59 Ppy    
 label:         589 Au                            59 Ppz    
 label:         590 Au                            59 Ppx    
 label:         591 Au                            60 s      
 label:         592 Au                            60 s      
 label:         593 Au                            60 dxy    
 label:         594 Au                            60 dyz    
 label:         595 Au                            60 dz2    
 label:         596 Au                            60 dxz    
 label:         597 Au                            60 dx2-y2 
 label:         598 Au                            60 Ppy    
 label:         599 Au                            60 Ppz    
 label:         600 Au                            60 Ppx    
 label:         601 H                             61 s      
 label:         602 H                             61 s      
 label:         603 H                             61 py     
 label:         604 H                             61 pz     
 label:         605 H                             61 px     
 label:         606 H                             62 s      
 label:         607 H                             62 s      
 label:         608 H                             62 py     
 label:         609 H                             62 pz     
 label:         610 H                             62 px     
 label:         611 Au                            63 s      
 label:         612 Au                            63 s      
 label:         613 Au                            63 dxy    
 label:         614 Au                            63 dyz    
 label:         615 Au                            63 dz2    
 label:         616 Au                            63 dxz    
 label:         617 Au                            63 dx2-y2 
 label:         618 Au                            63 Ppy    
 label:         619 Au                            63 Ppz    
 label:         620 Au                            63 Ppx    
 label:         621 Au                            64 s      
 label:         622 Au                            64 s      
 label:         623 Au                            64 dxy    
 label:         624 Au                            64 dyz    
 label:         625 Au                            64 dz2    
 label:         626 Au                            64 dxz    
 label:         627 Au                            64 dx2-y2 
 label:         628 Au                            64 Ppy    
 label:         629 Au                            64 Ppz    
 label:         630 Au                            64 Ppx    
 label:         631 Au                            65 s      
 label:         632 Au                            65 s      
 label:         633 Au                            65 dxy    
 label:         634 Au                            65 dyz    
 label:         635 Au                            65 dz2    
 label:         636 Au                            65 dxz    
 label:         637 Au                            65 dx2-y2 
 label:         638 Au                            65 Ppy    
 label:         639 Au                            65 Ppz    
 label:         640 Au                            65 Ppx    
 label:         641 Au                            66 s      
 label:         642 Au                            66 s      
 label:         643 Au                            66 dxy    
 label:         644 Au                            66 dyz    
 label:         645 Au                            66 dz2    
 label:         646 Au                            66 dxz    
 label:         647 Au                            66 dx2-y2 
 label:         648 Au                            66 Ppy    
 label:         649 Au                            66 Ppz    
 label:         650 Au                            66 Ppx    
 label:         651 Au                            67 s      
 label:         652 Au                            67 s      
 label:         653 Au                            67 dxy    
 label:         654 Au                            67 dyz    
 label:         655 Au                            67 dz2    
 label:         656 Au                            67 dxz    
 label:         657 Au                            67 dx2-y2 
 label:         658 Au                            67 Ppy    
 label:         659 Au                            67 Ppz    
 label:         660 Au                            67 Ppx    
 label:         661 Au                            68 s      
 label:         662 Au                            68 s      
 label:         663 Au                            68 dxy    
 label:         664 Au                            68 dyz    
 label:         665 Au                            68 dz2    
 label:         666 Au                            68 dxz    
 label:         667 Au                            68 dx2-y2 
 label:         668 Au                            68 Ppy    
 label:         669 Au                            68 Ppz    
 label:         670 Au                            68 Ppx    
 label:         671 Au                            69 s      
 label:         672 Au                            69 s      
 label:         673 Au                            69 dxy    
 label:         674 Au                            69 dyz    
 label:         675 Au                            69 dz2    
 label:         676 Au                            69 dxz    
 label:         677 Au                            69 dx2-y2 
 label:         678 Au                            69 Ppy    
 label:         679 Au                            69 Ppz    
 label:         680 Au                            69 Ppx    
 label:         681 Au                            70 s      
 label:         682 Au                            70 s      
 label:         683 Au                            70 dxy    
 label:         684 Au                            70 dyz    
 label:         685 Au                            70 dz2    
 label:         686 Au                            70 dxz    
 label:         687 Au                            70 dx2-y2 
 label:         688 Au                            70 Ppy    
 label:         689 Au                            70 Ppz    
 label:         690 Au                            70 Ppx    
 label:         691 Au                            71 s      
 label:         692 Au                            71 s      
 label:         693 Au                            71 dxy    
 label:         694 Au                            71 dyz    
 label:         695 Au                            71 dz2    
 label:         696 Au                            71 dxz    
 label:         697 Au                            71 dx2-y2 
 label:         698 Au                            71 Ppy    
 label:         699 Au                            71 Ppz    
 label:         700 Au                            71 Ppx    
 label:         701 Au                            72 s      
 label:         702 Au                            72 s      
 label:         703 Au                            72 dxy    
 label:         704 Au                            72 dyz    
 label:         705 Au                            72 dz2    
 label:         706 Au                            72 dxz    
[...]
    1.78720903    1.28067091    0.00000000   1  Au         1
    0.30935586    2.75852409    2.09000000   1  Au         2
    1.78720903    1.28067091    4.18000000   1  Au         3
    0.30935586    2.75852409    6.27000000   1  Au         4
    4.74291537    1.28067091    0.00000000   1  Au         5
    3.26506220    2.75852409    2.09000000   1  Au         6
    4.74291537    1.28067091    4.18000000   1  Au         7
    3.26506220    2.75852409    6.27000000   1  Au         8
    7.69862172    1.28067091    0.00000000   1  Au         9
    6.22076855    2.75852409    2.09000000   1  Au        10
    7.69862172    1.28067091    4.18000000   1  Au        11
    6.22076855    2.75852409    6.27000000   1  Au        12
    1.78720903    4.23637726    0.00000000   1  Au        13
    0.30935586    5.71423043    2.09000000   1  Au        14
    1.78720903    4.23637726    4.18000000   1  Au        15
    0.30935586    5.71423043    6.27000000   1  Au        16
    4.74291537    4.23637726    0.00000000   1  Au        17
    3.26506220    5.71423043    2.09000000   1  Au        18
    4.74291537    4.23637726    4.18000000   1  Au        19
    3.26506220    5.71423043    6.27000000   1  Au        20
    7.69862172    4.23637726    0.00000000   1  Au        21
    6.22076855    5.71423043    2.09000000   1  Au        22
    7.69862172    4.23637726    4.18000000   1  Au        23
    6.22076855    5.71423043    6.27000000   1  Au        24
    1.78720903    7.19208360    0.00000000   1  Au        25
    0.30935586    8.66993678    2.09000000   1  Au        26
    1.78720903    7.19208360    4.18000000   1  Au        27
    0.30935586    8.66993678    6.27000000   1  Au        28
    4.74291537    7.19208360    0.00000000   1  Au        29
    3.26506220    8.66993678    2.09000000   1  Au        30
    4.74291537    7.19208360    4.18000000   1  Au        31
    3.26506220    8.66993678    6.27000000   1  Au        32
    7.69862172    7.19208360    0.00000000   1  Au        33
    6.22076855    8.66993678    2.09000000   1  Au        34
    7.69862172    7.19208360    4.18000000   1  Au        35
    6.22076855    8.66993678    6.27000000   1  Au        36
    1.78720903    1.28067091    8.36000000   1  Au        37
    1.78720903    4.23637726    8.36000000   1  Au        38
    1.78720903    7.19208360    8.36000000   1  Au        39
    4.74291537    1.28067091    8.36000000   1  Au        40
    4.74291537    4.23637726    8.36000000   1  Au        41
    4.74291537    7.19208360    8.36000000   1  Au        42
    7.69862172    1.28067091    8.36000000   1  Au        43
    7.69862172    4.23637726    8.36000000   1  Au        44
    7.69862172    7.19208360    8.36000000   1  Au        45
    0.30935586    2.75852409   10.45000000   1  Au        46
    0.30935586    5.71423043   10.45000000   1  Au        47
    0.30935586    8.66993678   10.45000000   1  Au        48
    3.26506220    2.75852409   10.45000000   1  Au        49
    3.26506220    5.71423043   10.45000000   1  Au        50
    3.26506220    8.66993678   10.45000000   1  Au        51
    6.22076855    2.75852409   10.45000000   1  Au        52
    6.22076855    5.71423043   10.45000000   1  Au        53
    6.22076855    8.66993678   10.45000000   1  Au        54
    1.76516167    4.21437249   12.44082644   1  Au        55
    1.76475411    7.21461273   12.44075413   1  Au        56
    4.76516852    4.21427798   12.44063762   1  Au        57
    4.76582290    7.21485817   12.44056558   1  Au        58
    3.26576368    5.71584974   14.38566984   1  Au        59
    3.26709066    5.74239580   17.04229296   1  Au        60
    3.25334268    5.72022147   18.92602170   2  H         61
    3.25972532    5.72620683   19.79313185   2  H         62
    3.23585245    5.71252168   21.67567037   1  Au        63
    3.26279287    5.71424252   24.32825174   1  Au        64
    1.76575803    4.21467329   26.27815729   1  Au        65
    1.76584429    7.21346603   26.27822181   1  Au        66
    4.76384625    4.21559684   26.27790388   1  Au        67
    4.76405605    7.21283970   26.27802948   1  Au        68
    0.30935586    2.75852409   28.27000000   1  Au        69
    0.30935586    5.71423043   28.27000000   1  Au        70
    0.30935586    8.66993678   28.27000000   1  Au        71
    3.26506220    2.75852409   28.27000000   1  Au        72
    3.26506220    5.71423043   28.27000000   1  Au        73
    3.26506220    8.66993678   28.27000000   1  Au        74
    6.22076855    2.75852409   28.27000000   1  Au        75
    6.22076855    5.71423043   28.27000000   1  Au        76
    6.22076855    8.66993678   28.27000000   1  Au        77
    1.78720903    1.28067091   30.36000000   1  Au        78
    0.30935586    2.75852409   32.45000000   1  Au        79
    1.78720903    1.28067091   34.54000000   1  Au        80
    0.30935586    2.75852409   36.63000000   1  Au        81
    4.74291537    1.28067091   30.36000000   1  Au        82
    3.26506220    2.75852409   32.45000000   1  Au        83
    4.74291537    1.28067091   34.54000000   1  Au        84
    3.26506220    2.75852409   36.63000000   1  Au        85
    7.69862172    1.28067091   30.36000000   1  Au        86
    6.22076855    2.75852409   32.45000000   1  Au        87
    7.69862172    1.28067091   34.54000000   1  Au        88
    6.22076855    2.75852409   36.63000000   1  Au        89
    1.78720903    4.23637726   30.36000000   1  Au        90
    0.30935586    5.71423043   32.45000000   1  Au        91
    1.78720903    4.23637726   34.54000000   1  Au        92
    0.30935586    5.71423043   36.63000000   1  Au        93
    4.74291537    4.23637726   30.36000000   1  Au        94
    3.26506220    5.71423043   32.45000000   1  Au        95
    4.74291537    4.23637726   34.54000000   1  Au        96
    3.26506220    5.71423043   36.63000000   1  Au        97
    7.69862172    4.23637726   30.36000000   1  Au        98
    6.22076855    5.71423043   32.45000000   1  Au        99
    7.69862172    4.23637726   34.54000000   1  Au       100
    6.22076855    5.71423043   36.63000000   1  Au       101
    1.78720903    7.19208360   30.36000000   1  Au       102
    0.30935586    8.66993678   32.45000000   1  Au       103
    1.78720903    7.19208360   34.54000000   1  Au       104
    0.30935586    8.66993678   36.63000000   1  Au       105
    4.74291537    7.19208360   30.36000000   1  Au       106
    3.26506220    8.66993678   32.45000000   1  Au       107
    4.74291537    7.19208360   34.54000000   1  Au       108
    3.26506220    8.66993678   36.63000000   1  Au       109
    7.69862172    7.19208360   30.36000000   1  Au       110
    6.22076855    8.66993678   32.45000000   1  Au       111
    7.69862172    7.19208360   34.54000000   1  Au       112
    6.22076855    8.66993678   36.63000000   1  Au       113
 siesta: ERROR: PDOS implemented only with diagon

siesta: Program's energy decomposition (eV):
siesta:-Eions   = -122574.844785
siesta: Ena     =    4112.973510
siesta: Ekin    =   69007.182428
siesta: Enl     =  -34954.595957
siesta: DEna    =     638.743771
siesta: DUscf   =      34.688416
siesta: DUext   =       0.000000
siesta: Exc     =  -15805.290849
siesta: eta*DQ  =       0.000000
siesta: Emadel  =       0.000000
siesta: Ekinion =       0.000000
siesta: Eharris =  -99541.143979
siesta: Eso     =       0.000000
siesta: Etot    =  -99541.143466
siesta: FreeEng =  -99541.143466

siesta: Final energy (eV):
siesta:       Kinetic =   69007.182428
siesta:       Hartree =  568435.619261
siesta:    Ext. field =       0.000000
siesta:   Exch.-corr. =  -15805.290849
siesta:  Ion-electron =-1194664.621364
siesta:       Ion-ion =  473485.967058
siesta:       Ekinion =       0.000000
siesta:         Total =  -99541.143466

siesta: Atomic forces (eV/Ang):
siesta:    1    0.000477    0.000963   -0.000140
siesta:    2    0.000873    0.000445   -0.004238
siesta:    3    0.002862    0.001007    0.001478
siesta:    4   -0.008558   -0.009825    0.032917
siesta:    5    0.000469    0.000468   -0.000115
siesta:    6   -0.000736   -0.000116   -0.003503
siesta:    7   -0.001698    0.001316    0.001518
siesta:    8   -0.000821   -0.003761   -0.002601
siesta:    9   -0.001532    0.000962   -0.000225
siesta:   10   -0.000197   -0.000095   -0.004118
siesta:   11   -0.000834    0.000934    0.000641
siesta:   12    0.009380   -0.009415    0.032328
siesta:   13   -0.000390   -0.000799   -0.000142
siesta:   14    0.000993    0.000812   -0.003293
siesta:   15    0.004750    0.003935   -0.001860
siesta:   16   -0.002816    0.000663   -0.003040
siesta:   17    0.000854   -0.000774   -0.000072
siesta:   18   -0.001117    0.001149   -0.003112
siesta:   19   -0.003638    0.003892   -0.002342
siesta:   20   -0.000761    0.000467   -0.005591
siesta:   21   -0.000282   -0.000265   -0.000254
siesta:   22    0.000100    0.000767   -0.003465
siesta:   23   -0.000953    0.002304    0.002301
siesta:   24    0.003671    0.000322   -0.003329
siesta:   25    0.000097   -0.000484   -0.000047
siesta:   26    0.001411   -0.001089   -0.004272
siesta:   27    0.004484   -0.004571   -0.003135
siesta:   28   -0.008757    0.008690    0.030002
siesta:   29    0.000904    0.000281   -0.000056
siesta:   30   -0.000997   -0.000816   -0.003161
siesta:   31   -0.003544   -0.004999   -0.002902
siesta:   32   -0.001372    0.002924   -0.004415
siesta:   33   -0.001155   -0.000681   -0.000176
siesta:   34   -0.000608   -0.000644   -0.004152
siesta:   35   -0.000956   -0.003042    0.000724
siesta:   36    0.009883    0.008655    0.030541
siesta:   37    0.095674    0.000303    0.109679
siesta:   38    0.079599    0.078960   -0.111432
siesta:   39    0.079673   -0.079428   -0.110987
siesta:   40   -0.094851    0.000533    0.109992
siesta:   41   -0.078702    0.079302   -0.111160
siesta:   42   -0.078696   -0.079804   -0.111168
siesta:   43   -0.000459   -0.000646    0.296077
siesta:   44   -0.001094    0.095852    0.109679
siesta:   45   -0.000869   -0.095421    0.109456
siesta:   46   -0.173728   -0.174654    0.326051
siesta:   47   -0.544729    0.000687    0.179801
siesta:   48   -0.173719    0.174880    0.325587
siesta:   49   -0.000759   -0.546011    0.179450
siesta:   50   -0.000794    0.001584   -0.342695
siesta:   51   -0.001479    0.545622    0.179504
siesta:   52    0.175031   -0.174665    0.325669
siesta:   53    0.546682   -0.000086    0.178522
siesta:   54    0.175521    0.175068    0.325522
siesta:   55   -0.000020   -0.000649   -0.000269
siesta:   56   -0.000260    0.000020    0.000140
siesta:   57   -0.000258   -0.000240    0.000422
siesta:   58   -0.000445   -0.000616    0.000577
siesta:   59   -0.000657   -0.000149    0.002349
siesta:   60    0.000010   -0.002511    0.000018
siesta:   61   -0.000011    0.000404   -0.004396
siesta:   62   -0.000852   -0.000304   -0.003922
siesta:   63    0.002938    0.000936   -0.004061
siesta:   64    0.000107    0.000117    0.002713
siesta:   65    0.001694    0.001342   -0.001373
siesta:   66    0.001232   -0.001278   -0.001392
siesta:   67   -0.001894    0.001279   -0.001861
siesta:   68   -0.001765   -0.001569   -0.001670
siesta:   69   -0.164016   -0.165809   -0.417421
siesta:   70   -0.528678    0.001403   -0.236963
siesta:   71   -0.164507    0.164148   -0.417201
siesta:   72   -0.000284   -0.530591   -0.237203
siesta:   73   -0.002004    0.000996    0.320938
siesta:   74   -0.001110    0.528353   -0.237607
siesta:   75    0.164299   -0.165289   -0.417522
siesta:   76    0.530229    0.000662   -0.236858
siesta:   77    0.165441    0.163915   -0.417638
siesta:   78    0.112955    0.001227   -0.042321
siesta:   79    0.007800    0.006367    0.028417
siesta:   80   -0.000066    0.000873   -0.003918
siesta:   81    0.000628    0.000327    0.008703
siesta:   82   -0.112605    0.001519   -0.043301
siesta:   83   -0.000822    0.007949    0.000287
siesta:   84    0.001242    0.001184   -0.004070
siesta:   85   -0.000774   -0.000256    0.008436
siesta:   86    0.000202    0.000715   -0.163215
siesta:   87   -0.007016    0.006732    0.029261
siesta:   88   -0.000840    0.000835   -0.003149
siesta:   89    0.000084   -0.000224    0.008577
siesta:   90    0.084537    0.083423    0.143292
siesta:   91    0.008904    0.001161   -0.000638
siesta:   92    0.000220   -0.000543   -0.003728
siesta:   93    0.000760    0.000746    0.008271
siesta:   94   -0.083043    0.083596    0.143441
siesta:   95   -0.000713    0.000438   -0.034081
siesta:   96    0.000905   -0.000580   -0.003391
siesta:   97   -0.001170    0.001101    0.008507
siesta:   98   -0.001605    0.113117   -0.042926
siesta:   99   -0.008119    0.000833   -0.000140
siesta:  100   -0.000963   -0.000586   -0.004130
siesta:  101    0.000384    0.000711    0.008422
siesta:  102    0.084668   -0.084422    0.141571
siesta:  103    0.007480   -0.007517    0.028502
siesta:  104   -0.000064    0.000057   -0.003722
siesta:  105    0.001185   -0.000909    0.008709
siesta:  106   -0.083138   -0.084634    0.142081
siesta:  107   -0.001335   -0.008645   -0.000732
siesta:  108    0.001014   -0.000379   -0.004001
siesta:  109   -0.001032   -0.000619    0.008097
siesta:  110   -0.001383   -0.113168   -0.043082
siesta:  111   -0.006374   -0.007518    0.028245
siesta:  112   -0.000966   -0.000059   -0.003537
siesta:  113   -0.000346   -0.000443    0.008605
siesta: ----------------------------------------
siesta:  Tot    0.001575   -0.001367    0.083379

siesta: Stress tensor (static) (eV/Ang**3):
siesta:    -0.007202   -0.000001    0.000002
siesta:    -0.000001   -0.007192   -0.000001
siesta:     0.000002   -0.000001   -0.010552

siesta: Cell volume =       3044.391638 Ang**3

siesta: Pressure (static):
siesta:                Solid            Molecule  Units
siesta:           0.00009056          0.00011144  Ry/Bohr**3
siesta:           0.00831534          0.01023205  eV/Ang**3
siesta:          13.32278422         16.39372593  kBar

siesta: Total spin polarization (Qup-Qdown) =    0.000000
siesta: Spin vector =    0.000000    0.000000    0.000000
siesta: No SpinPolK block detected...

siesta: Electric dipole (a.u.)  =    0.000000    0.000000   35.061325
siesta: Electric dipole (Debye) =    0.000000    0.000000   89.117061

* Maximum dynamic memory allocated : Node    0 =   328 MB
* Maximum dynamic memory allocated : Node    1 =   277 MB
* Maximum dynamic memory allocated : Node    2 =   224 MB
* Maximum dynamic memory allocated : Node    3 =   174 MB
* Maximum dynamic memory allocated : Node    4 =   174 MB
* Maximum dynamic memory allocated : Node    5 =   222 MB
* Maximum dynamic memory allocated : Node    6 =   276 MB
* Maximum dynamic memory allocated : Node    7 =   279 MB
* Maximum dynamic memory allocated : Node    8 =   279 MB
* Maximum dynamic memory allocated : Node    9 =   276 MB
* Maximum dynamic memory allocated : Node   10 =   221 MB
* Maximum dynamic memory allocated : Node   11 =   173 MB
* Maximum dynamic memory allocated : Node   12 =   172 MB
* Maximum dynamic memory allocated : Node   13 =   219 MB
* Maximum dynamic memory allocated : Node   14 =   274 MB
* Maximum dynamic memory allocated : Node   15 =   277 MB
* Maximum dynamic memory allocated : Node   16 =   276 MB
* Maximum dynamic memory allocated : Node   17 =   274 MB
* Maximum dynamic memory allocated : Node   18 =   225 MB
* Maximum dynamic memory allocated : Node   19 =   176 MB
* Maximum dynamic memory allocated : Node   20 =   176 MB
* Maximum dynamic memory allocated : Node   21 =   224 MB
* Maximum dynamic memory allocated : Node   22 =   274 MB
* Maximum dynamic memory allocated : Node   23 =   276 MB
* Maximum dynamic memory allocated : Node   24 =   278 MB
* Maximum dynamic memory allocated : Node   25 =   275 MB
* Maximum dynamic memory allocated : Node   26 =   235 MB
* Maximum dynamic memory allocated : Node   27 =   186 MB
* Maximum dynamic memory allocated : Node   28 =   186 MB
* Maximum dynamic memory allocated : Node   29 =   234 MB
* Maximum dynamic memory allocated : Node   30 =   275 MB
* Maximum dynamic memory allocated : Node   31 =   278 MB
* Maximum dynamic memory allocated : Node   32 =   278 MB
* Maximum dynamic memory allocated : Node   33 =   276 MB
* Maximum dynamic memory allocated : Node   34 =   244 MB
* Maximum dynamic memory allocated : Node   35 =   192 MB
* Maximum dynamic memory allocated : Node   36 =   192 MB
* Maximum dynamic memory allocated : Node   37 =   243 MB
* Maximum dynamic memory allocated : Node   38 =   276 MB
* Maximum dynamic memory allocated : Node   39 =   278 MB
* Maximum dynamic memory allocated : Node   40 =   277 MB
* Maximum dynamic memory allocated : Node   41 =   275 MB
* Maximum dynamic memory allocated : Node   42 =   245 MB
* Maximum dynamic memory allocated : Node   43 =   193 MB
* Maximum dynamic memory allocated : Node   44 =   193 MB
* Maximum dynamic memory allocated : Node   45 =   244 MB
* Maximum dynamic memory allocated : Node   46 =   275 MB
* Maximum dynamic memory allocated : Node   47 =   277 MB
* Maximum dynamic memory allocated : Node   48 =   278 MB
* Maximum dynamic memory allocated : Node   49 =   275 MB
* Maximum dynamic memory allocated : Node   50 =   239 MB
* Maximum dynamic memory allocated : Node   51 =   189 MB
* Maximum dynamic memory allocated : Node   52 =   189 MB
* Maximum dynamic memory allocated : Node   53 =   238 MB
* Maximum dynamic memory allocated : Node   54 =   275 MB
* Maximum dynamic memory allocated : Node   55 =   277 MB
* Maximum dynamic memory allocated : Node   56 =   276 MB
* Maximum dynamic memory allocated : Node   57 =   275 MB
* Maximum dynamic memory allocated : Node   58 =   229 MB
* Maximum dynamic memory allocated : Node   59 =   180 MB
* Maximum dynamic memory allocated : Node   60 =   180 MB
* Maximum dynamic memory allocated : Node   61 =   227 MB
* Maximum memory occured during matrixMtoO                    
* Maximum dynamic memory allocated : Node   62 =   275 MB
* Maximum dynamic memory allocated : Node   63 =   277 MB

timer: CPU execution times:
timer:  Routine       Calls   Time/call    Tot.time        %
timer:  siesta            1  294527.957  294527.957   100.00
timer:  Setup             1      18.712      18.712     0.01
timer:  bands             1       0.005       0.005     0.00
timer:  writewave         1       0.062       0.062     0.00
timer:  KSV_init          1       0.021       0.021     0.00
timer:  IterMD            9   32620.259  293582.329    99.68
timer:  hsparse          10       4.779      47.785     0.02
timer:  overfsm          18       0.577      10.378     0.00
timer:  IterSCF         183    1602.572  293270.606    99.57
timer:  kinefsm          18       0.539       9.705     0.00
timer:  nlefsm           18      69.163    1244.928     0.42
timer:  DHSCF           211     453.904   95773.725    32.52
timer:  DHSCF1            1      64.671      64.671     0.02
timer:  DHSCF2           37     524.394   19402.573     6.59
timer:  REORD          3032       0.023      68.627     0.02
timer:  POISON          248       4.341    1076.508     0.37
timer:  DHSCF3          211     315.192   66505.593    22.58
timer:  rhoofd          211      64.981   13710.905     4.66
timer:  CELLXC          211      27.378    5776.786     1.96
timer:  vmat            183     164.544   30111.493    10.22
timer:  emtrans         183    1037.800  189917.372    64.48
timer:  NEGFK          1098     157.952  173431.579    58.88
timer:  NEGFK_su       1098       9.505   10436.593     3.54
timer:  NEGFK_imag     1044      45.755   47768.050    16.22
timer:  NEGFK_real     1044      80.384   83920.535    28.49
timer:  NEGFK_col      1044       8.802    9188.901     3.12
timer:  DHSCF4           36     175.009    6300.341     2.14
timer:  dfscf            36     139.266    5013.586     1.70
timer:  CURRENT          54      51.059    2757.211     0.94
  
>> End of run:  13-SEP-2023  14:22:57
