 DBCSR| Multiplication driver                                               BLAS
 DBCSR| Multrec recursion limit                                              512
 DBCSR| Multiplication stack size                                           1000
 DBCSR| Maximum elements for images                                    UNLIMITED
 DBCSR| Multiplicative factor virtual images                                   1
 DBCSR| Multiplication size stacks                                             3
 DBCSR| Number of 3D layers                                               SINGLE
 DBCSR| Use MPI memory allocation                                              T
 DBCSR| Use RMA algorithm                                                      F
 DBCSR| Use Communication thread                                               T
 DBCSR| Communication thread load                                             87


  **** **** ******  **  PROGRAM STARTED AT               2022-08-12 06:47:14.268
 ***** ** ***  *** **   PROGRAM STARTED ON            cx3-14-17.cx3.hpc.ic.ac.uk
 **    ****   ******    PROGRAM STARTED BY                                jj1921
 ***** **    ** ** **   PROGRAM PROCESS ID                               1238994
  **** **  *******  **  PROGRAM STARTED IN /rds/general/user/jj1921/home/junctio
                                           n/lateral/lateral_10/wire

 CP2K| version string:                                          CP2K version 6.1
 CP2K| source code revision number:                                    svn:18464
 CP2K| cp2kflags: libint fftw3 parallel mpi3 scalapack has_no_shared_glibc max_c
 CP2K|            ontr=4 mkl
 CP2K| is freely available from                            https://www.cp2k.org/
 CP2K| Program compiled at                          Thu 12 Jul 13:52:12 BST 2018
 CP2K| Program compiled on                                  build-2.hpc.ic.ac.uk
 CP2K| Program compiled for                                   Linux-x86-64-intel
 CP2K| Data directory path                                   /tmp/cp2k/cp2k/data
 CP2K| Input file name                                           Au_junction.inp
 
 GLOBAL| Force Environment number                                              1
 GLOBAL| Basis set file name            /rds/general/user/jj1921/home/BASIS_COM_
 GLOBAL| Potential file name            /rds/general/user/jj1921/home/GTH_POTENT
 GLOBAL| MM Potential file name                                     MM_POTENTIAL
 GLOBAL| Coordinate file name                                      __STD_INPUT__
 GLOBAL| Method name                                                        CP2K
 GLOBAL| Project name                                                Au_junction
 GLOBAL| Preferred FFT library                                             FFTW3
 GLOBAL| Preferred diagonalization lib.                                       SL
 GLOBAL| Run type                                                         ENERGY
 GLOBAL| All-to-all communication in single precision                          F
 GLOBAL| FFTs using library dependent lengths                                  F
 GLOBAL| Global print level                                               MEDIUM
 GLOBAL| Total number of message passing processes                           100
 GLOBAL| Number of threads for this process                                    1
 GLOBAL| This output is from process                                           0
 GLOBAL| CPU model name :  AMD EPYC 7742 64-Core Processor

 MEMORY| system memory details [Kb]
 MEMORY|                        rank 0           min           max       average
 MEMORY| MemTotal           1056648196    1056648196    1056648196    1056648196
 MEMORY| MemFree             917985912     917984988     917985912     917985887
 MEMORY| Buffers                  3180          3180          3180          3180
 MEMORY| Cached                5925744       5925372       5925744       5925732
 MEMORY| Slab                  3346632       3346632       3346632       3346632
 MEMORY| SReclaimable          1008236       1008236       1008236       1008236
 MEMORY| MemLikelyFree       924923072     924921776     924923072     924923036


 *** Fundamental physical constants (SI units) ***

 *** Literature: B. J. Mohr and B. N. Taylor,
 ***             CODATA recommended values of the fundamental physical
 ***             constants: 2006, Web Version 5.1
 ***             http://physics.nist.gov/constants

 Speed of light in vacuum [m/s]                             2.99792458000000E+08
 Magnetic constant or permeability of vacuum [N/A**2]       1.25663706143592E-06
 Electric constant or permittivity of vacuum [F/m]          8.85418781762039E-12
 Planck constant (h) [J*s]                                  6.62606896000000E-34
 Planck constant (h-bar) [J*s]                              1.05457162825177E-34
 Elementary charge [C]                                      1.60217648700000E-19
 Electron mass [kg]                                         9.10938215000000E-31
 Electron g factor [ ]                                     -2.00231930436220E+00
 Proton mass [kg]                                           1.67262163700000E-27
 Fine-structure constant                                    7.29735253760000E-03
 Rydberg constant [1/m]                                     1.09737315685270E+07
 Avogadro constant [1/mol]                                  6.02214179000000E+23
 Boltzmann constant [J/K]                                   1.38065040000000E-23
 Atomic mass unit [kg]                                      1.66053878200000E-27
 Bohr radius [m]                                            5.29177208590000E-11

 *** Conversion factors ***

 [u] -> [a.u.]                                              1.82288848426455E+03
 [Angstrom] -> [Bohr] = [a.u.]                              1.88972613288564E+00
 [a.u.] = [Bohr] -> [Angstrom]                              5.29177208590000E-01
 [a.u.] -> [s]                                              2.41888432650478E-17
 [a.u.] -> [fs]                                             2.41888432650478E-02
 [a.u.] -> [J]                                              4.35974393937059E-18
 [a.u.] -> [N]                                              8.23872205491840E-08
 [a.u.] -> [K]                                              3.15774647902944E+05
 [a.u.] -> [kJ/mol]                                         2.62549961709828E+03
 [a.u.] -> [kcal/mol]                                       6.27509468713739E+02
 [a.u.] -> [Pa]                                             2.94210107994716E+13
 [a.u.] -> [bar]                                            2.94210107994716E+08
 [a.u.] -> [atm]                                            2.90362800883016E+08
 [a.u.] -> [eV]                                             2.72113838565563E+01
 [a.u.] -> [Hz]                                             6.57968392072181E+15
 [a.u.] -> [1/cm] (wave numbers)                            2.19474631370540E+05
 [a.u./Bohr**2] -> [1/cm]                                   5.14048714338585E+03
 

 CELL_TOP| Volume [angstrom^3]:                                        24049.374
 CELL_TOP| Vector a [angstrom    29.686     0.000     0.000    |a| =      29.686
 CELL_TOP| Vector b [angstrom     0.000    25.709     0.000    |b| =      25.709
 CELL_TOP| Vector c [angstrom     0.000     0.000    31.511    |c| =      31.511
 CELL_TOP| Angle (b,c), alpha [degree]:                                   90.000
 CELL_TOP| Angle (a,c), beta  [degree]:                                   90.000
 CELL_TOP| Angle (a,b), gamma [degree]:                                   90.000
 CELL_TOP| Requested initial symmetry:                              ORTHORHOMBIC
 CELL_TOP| Numerically orthorhombic:                                         YES
 
 GENERATE|  Preliminary Number of Bonds generated:                             0
 GENERATE|  Achieved consistency in connectivity generation.

 CELL| Volume [angstrom^3]:                                            24049.374
 CELL| Vector a [angstrom]:      29.686     0.000     0.000    |a| =      29.686
 CELL| Vector b [angstrom]:       0.000    25.709     0.000    |b| =      25.709
 CELL| Vector c [angstrom]:       0.000     0.000    31.511    |c| =      31.511
 CELL| Angle (b,c), alpha [degree]:                                       90.000
 CELL| Angle (a,c), beta  [degree]:                                       90.000
 CELL| Angle (a,b), gamma [degree]:                                       90.000
 CELL| Requested initial symmetry:                                  ORTHORHOMBIC
 CELL| Numerically orthorhombic:                                             YES

 CELL_REF| Volume [angstrom^3]:                                        24049.374
 CELL_REF| Vector a [angstrom    29.686     0.000     0.000    |a| =      29.686
 CELL_REF| Vector b [angstrom     0.000    25.709     0.000    |b| =      25.709
 CELL_REF| Vector c [angstrom     0.000     0.000    31.511    |c| =      31.511
 CELL_REF| Angle (b,c), alpha [degree]:                                   90.000
 CELL_REF| Angle (a,c), beta  [degree]:                                   90.000
 CELL_REF| Angle (a,b), gamma [degree]:                                   90.000
 CELL_REF| Requested initial symmetry:                              ORTHORHOMBIC
 CELL_REF| Numerically orthorhombic:                                         YES

 *** WARNING in cryssym.F:163 :: Symmetry library SPGLIB not available ***


 *******************************************************************************
                                    Kpoints
 *******************************************************************************
 BRILLOUIN| K-point scheme                                        Monkhorst-Pack
 BRILLOUIN| K-Point grid                                             2    2    1
 BRILLOUIN| Accuracy in Symmetry determination                      0.100000E-05
 BRILLOUIN| K-Point point group symmetrization                               OFF
 BRILLOUIN| Wavefunction type                                            COMPLEX
 BRILLOUIN| Use full k-point grid     
 BRILLOUIN| List of Kpoints [2 Pi/Bohr]                                        4
 BRILLOUIN| Number           Weight            X              Y              Z
 BRILLOUIN|     1           0.25000       -0.25000       -0.25000        0.00000
 BRILLOUIN|     2           0.25000       -0.25000        0.25000        0.00000
 BRILLOUIN|     3           0.25000        0.25000       -0.25000        0.00000
 BRILLOUIN|     4           0.25000        0.25000        0.25000        0.00000
 *******************************************************************************

 *******************************************************************************
 *******************************************************************************
 **                                                                           **
 **     #####                         ##              ##                      **
 **    ##   ##            ##          ##              ##                      **
 **   ##     ##                       ##            ######                    **
 **   ##     ##  ##   ##  ##   #####  ##  ##   ####   ##    #####    #####    **
 **   ##     ##  ##   ##  ##  ##      ## ##   ##      ##   ##   ##  ##   ##   **
 **   ##  ## ##  ##   ##  ##  ##      ####     ###    ##   ######   ######    **
 **    ##  ###   ##   ##  ##  ##      ## ##      ##   ##   ##       ##        **
 **     #######   #####   ##   #####  ##  ##  ####    ##    #####   ##        **
 **           ##                                                    ##        **
 **                                                                           **
 **                                                ... make the atoms dance   **
 **                                                                           **
 **            Copyright (C) by CP2K developers group (2000 - 2018)           **
 **                                                                           **
 *******************************************************************************

 DFT| Spin restricted Kohn-Sham (RKS) calculation                            RKS
 DFT| Multiplicity                                                             1
 DFT| Number of spin states                                                    1
 DFT| Charge                                                                   0
 DFT| Self-interaction correction (SIC)                                       NO
 DFT| Cutoffs: density                                              1.000000E-10
 DFT|          gradient                                             1.000000E-10
 DFT|          tau                                                  1.000000E-10
 DFT|          cutoff_smoothing_range                               0.000000E+00
 DFT| XC density smoothing                                                  NONE
 DFT| XC derivatives                                                          PW
 FUNCTIONAL| ROUTINE=NEW
 FUNCTIONAL| PBE:
 FUNCTIONAL| J.P.Perdew, K.Burke, M.Ernzerhof, Phys. Rev. Letter, vol. 77, n 18,
 FUNCTIONAL|  pp. 3865-3868, (1996){spin unpolarized}                           

 QS| Method:                                                                 GPW
 QS| Density plane wave grid type                        NON-SPHERICAL FULLSPACE
 QS| Number of grid levels:                                                    4
 QS| Density cutoff [a.u.]:                                                250.0
 QS| Multi grid cutoff [a.u.]: 1) grid level                               250.0
 QS|                           2) grid level                                83.3
 QS|                           3) grid level                                27.8
 QS|                           4) grid level                                 9.3
 QS| Grid level progression factor:                                          3.0
 QS| Relative density cutoff [a.u.]:                                        20.0
 QS| Consistent realspace mapping and integration 
 QS| Interaction thresholds: eps_pgf_orb:                                1.0E-07
 QS|                         eps_filter_matrix:                          0.0E+00
 QS|                         eps_core_charge:                            1.0E-16
 QS|                         eps_rho_gspace:                             1.0E-14
 QS|                         eps_rho_rspace:                             1.0E-14
 QS|                         eps_gvg_rspace:                             1.0E-07
 QS|                         eps_ppl:                                    1.0E-02
 QS|                         eps_ppnl:                                   1.0E-09


 ATOMIC KIND INFORMATION

  1. Atomic kind: Au                                    Number of atoms:      12

     Orbital Basis Set                                    TZVP-MOLOPT-SR-GTH-q11

       Number of orbital shell sets:                                           1
       Number of orbital shells:                                              10
       Number of primitive Cartesian functions:                                5
       Number of Cartesian basis functions:                                   40
       Number of spherical basis functions:                                   34
       Norm type:                                                              2

       Normalised Cartesian orbitals:

                        Set   Shell   Orbital            Exponent    Coefficient

                          1       1    2s                2.950008       0.049750
                                                         1.563057       0.267328
                                                         0.666664      -0.551598
                                                         0.251083       0.072002
                                                         0.081714       0.114867

                          1       2    3s                2.950008      -0.078739
                                                         1.563057       0.378930
                                                         0.666664      -0.110770
                                                         0.251083      -0.245520
                                                         0.081714      -0.004637

                          1       3    4s                2.950008      -0.053770
                                                         1.563057      -0.237101
                                                         0.666664       0.396801
                                                         0.251083      -0.074391
                                                         0.081714       0.097129

                          1       4    3px               2.950008      -0.287410
                                                         1.563057      -0.046810
                                                         0.666664       0.090038
                                                         0.251083       0.061414
                                                         0.081714       0.048416
                          1       4    3py               2.950008      -0.287410
                                                         1.563057      -0.046810
                                                         0.666664       0.090038
                                                         0.251083       0.061414
                                                         0.081714       0.048416
                          1       4    3pz               2.950008      -0.287410
                                                         1.563057      -0.046810
                                                         0.666664       0.090038
                                                         0.251083       0.061414
                                                         0.081714       0.048416

                          1       5    4px               2.950008      -0.031230
                                                         1.563057      -0.259325
                                                         0.666664       0.363713
                                                         0.251083      -0.386040
                                                         0.081714       0.025850
                          1       5    4py               2.950008      -0.031230
                                                         1.563057      -0.259325
                                                         0.666664       0.363713
                                                         0.251083      -0.386040
                                                         0.081714       0.025850
                          1       5    4pz               2.950008      -0.031230
                                                         1.563057      -0.259325
                                                         0.666664       0.363713
                                                         0.251083      -0.386040
                                                         0.081714       0.025850

                          1       6    5px               2.950008      -0.634652
                                                         1.563057      -0.963299
                                                         0.666664       0.995880
                                                         0.251083       0.070517
                                                         0.081714      -0.016209
                          1       6    5py               2.950008      -0.634652
                                                         1.563057      -0.963299
                                                         0.666664       0.995880
                                                         0.251083       0.070517
                                                         0.081714      -0.016209
                          1       6    5pz               2.950008      -0.634652
                                                         1.563057      -0.963299
                                                         0.666664       0.995880
                                                         0.251083       0.070517
                                                         0.081714      -0.016209

                          1       7    4dx2              2.950008       0.572996
                                                         1.563057       0.322251
                                                         0.666664       0.300173
                                                         0.251083       0.099388
                                                         0.081714      -0.001351
                          1       7    4dxy              2.950008       0.992458
                                                         1.563057       0.558156
                                                         0.666664       0.519915
                                                         0.251083       0.172145
                                                         0.081714      -0.002339
                          1       7    4dxz              2.950008       0.992458
                                                         1.563057       0.558156
                                                         0.666664       0.519915
                                                         0.251083       0.172145
                                                         0.081714      -0.002339
                          1       7    4dy2              2.950008       0.572996
                                                         1.563057       0.322251
                                                         0.666664       0.300173
                                                         0.251083       0.099388
                                                         0.081714      -0.001351
                          1       7    4dyz              2.950008       0.992458
                                                         1.563057       0.558156
                                                         0.666664       0.519915
                                                         0.251083       0.172145
                                                         0.081714      -0.002339
                          1       7    4dz2              2.950008       0.572996
                                                         1.563057       0.322251
                                                         0.666664       0.300173
                                                         0.251083       0.099388
                                                         0.081714      -0.001351

                          1       8    5dx2              2.950008      -0.221363
                                                         1.563057      -0.288021
                                                         0.666664      -0.277201
                                                         0.251083       0.041335
                                                         0.081714       0.017516
                          1       8    5dxy              2.950008      -0.383413
                                                         1.563057      -0.498867
                                                         0.666664      -0.480127
                                                         0.251083       0.071593
                                                         0.081714       0.030338
                          1       8    5dxz              2.950008      -0.383413
                                                         1.563057      -0.498867
                                                         0.666664      -0.480127
                                                         0.251083       0.071593
                                                         0.081714       0.030338
                          1       8    5dy2              2.950008      -0.221363
                                                         1.563057      -0.288021
                                                         0.666664      -0.277201
                                                         0.251083       0.041335
                                                         0.081714       0.017516
                          1       8    5dyz              2.950008      -0.383413
                                                         1.563057      -0.498867
                                                         0.666664      -0.480127
                                                         0.251083       0.071593
                                                         0.081714       0.030338
                          1       8    5dz2              2.950008      -0.221363
                                                         1.563057      -0.288021
                                                         0.666664      -0.277201
                                                         0.251083       0.041335
                                                         0.081714       0.017516

                          1       9    6dx2              2.950008      -1.281149
                                                         1.563057       2.633116
                                                         0.666664       0.400943
                                                         0.251083      -0.047276
                                                         0.081714       0.007642
                          1       9    6dxy              2.950008      -2.219015
                                                         1.563057       4.560691
                                                         0.666664       0.694454
                                                         0.251083      -0.081884
                                                         0.081714       0.013236
                          1       9    6dxz              2.950008      -2.219015
                                                         1.563057       4.560691
                                                         0.666664       0.694454
                                                         0.251083      -0.081884
                                                         0.081714       0.013236
                          1       9    6dy2              2.950008      -1.281149
                                                         1.563057       2.633116
                                                         0.666664       0.400943
                                                         0.251083      -0.047276
                                                         0.081714       0.007642
                          1       9    6dyz              2.950008      -2.219015
                                                         1.563057       4.560691
                                                         0.666664       0.694454
                                                         0.251083      -0.081884
                                                         0.081714       0.013236
                          1       9    6dz2              2.950008      -1.281149
                                                         1.563057       2.633116
                                                         0.666664       0.400943
                                                         0.251083      -0.047276
                                                         0.081714       0.007642

                          1      10    5fx3              2.950008      -0.471653
                                                         1.563057       0.476248
                                                         0.666664      -0.241506
                                                         0.251083      -0.039345
                                                         0.081714      -0.001389
                          1      10    5fx2y             2.950008      -1.054649
                                                         1.563057       1.064923
                                                         0.666664      -0.540024
                                                         0.251083      -0.087977
                                                         0.081714      -0.003106
                          1      10    5fx2z             2.950008      -1.054649
                                                         1.563057       1.064923
                                                         0.666664      -0.540024
                                                         0.251083      -0.087977
                                                         0.081714      -0.003106
                          1      10    5fxy2             2.950008      -1.054649
                                                         1.563057       1.064923
                                                         0.666664      -0.540024
                                                         0.251083      -0.087977
                                                         0.081714      -0.003106
                          1      10    5fxyz             2.950008      -1.826705
                                                         1.563057       1.844501
                                                         0.666664      -0.935348
                                                         0.251083      -0.152381
                                                         0.081714      -0.005380
                          1      10    5fxz2             2.950008      -1.054649
                                                         1.563057       1.064923
                                                         0.666664      -0.540024
                                                         0.251083      -0.087977
                                                         0.081714      -0.003106
                          1      10    5fy3              2.950008      -0.471653
                                                         1.563057       0.476248
                                                         0.666664      -0.241506
                                                         0.251083      -0.039345
                                                         0.081714      -0.001389
                          1      10    5fy2z             2.950008      -1.054649
                                                         1.563057       1.064923
                                                         0.666664      -0.540024
                                                         0.251083      -0.087977
                                                         0.081714      -0.003106
                          1      10    5fyz2             2.950008      -1.054649
                                                         1.563057       1.064923
                                                         0.666664      -0.540024
                                                         0.251083      -0.087977
                                                         0.081714      -0.003106
                          1      10    5fz3              2.950008      -0.471653
                                                         1.563057       0.476248
                                                         0.666664      -0.241506
                                                         0.251083      -0.039345
                                                         0.081714      -0.001389

     GTH Potential information for                                   GTH-PBE-q11

       Description:                       Goedecker-Teter-Hutter pseudopotential
                                           Goedecker et al., PRB 54, 1703 (1996)
                                          Hartwigsen et al., PRB 58, 3641 (1998)
                                                      Krack, TCA 114, 145 (2005)

       Gaussian exponent of the core charge distribution:               1.436369
       Electronic configuration (s p d ...):                           1   0  10

       Parameters of the local part of the GTH pseudopotential:

                          rloc        C1          C2          C3          C4
                        0.590000   10.517179

       Parameters of the non-local part of the GTH pseudopotential:

                   l      r(l)      h(i,j,l)

                   0    0.543847    5.786811   -2.250680
                                   -2.250680    2.905615
                   1    0.609173    4.284049   -4.071285
                                   -4.071285    4.817210
                   2    0.437309   -7.403281    3.010193
                                    3.010193   -3.413238


 MOLECULE KIND INFORMATION


 All atoms are their own molecule, skipping detailed information


 TOTAL NUMBERS AND MAXIMUM NUMBERS

  Total number of            - Atomic kinds:                                   1
                             - Atoms:                                         12
                             - Shell sets:                                    12
                             - Shells:                                       120
                             - Primitive Cartesian functions:                 60
                             - Cartesian basis functions:                    480
                             - Spherical basis functions:                    408

  Maximum angular momentum of- Orbital basis functions:                        3
                             - Local part of the GTH pseudopotential:          0
                             - Non-local part of the GTH pseudopotential:      4


 MODULE QUICKSTEP:  ATOMIC COORDINATES IN angstrom

  Atom  Kind  Element       X           Y           Z          Z(eff)       Mass

       1     1 Au  79   13.358909   11.140667    7.271669     11.00     196.9666
       2     1 Au  79   16.327555   11.140667    7.271669     11.00     196.9666
       3     1 Au  79   14.843232   13.711590    7.271669     11.00     196.9666
       4     1 Au  79   14.843232   11.997642    9.695559     11.00     196.9666
       5     1 Au  79   14.843232   11.997642   12.119448     11.00     196.9666
       6     1 Au  79   14.843232   11.997642   14.543338     11.00     196.9666
       7     1 Au  79   14.843232   11.997642   16.967227     11.00     196.9666
       8     1 Au  79   14.843232   11.997642   19.391117     11.00     196.9666
       9     1 Au  79   14.843232   11.997642   21.815007     11.00     196.9666
      10     1 Au  79   14.843232   10.283693   24.238896     11.00     196.9666
      11     1 Au  79   13.358909   12.854616   24.238896     11.00     196.9666
      12     1 Au  79   16.327555   12.854616   24.238896     11.00     196.9666




 SCF PARAMETERS         Density guess:                                    ATOMIC
                        --------------------------------------------------------
                        max_scf:                                             500
                        max_scf_history:                                       0
                        max_diis:                                              4
                        --------------------------------------------------------
                        eps_scf:                                        1.00E-07
                        eps_scf_history:                                0.00E+00
                        eps_diis:                                       1.00E-01
                        eps_eigval:                                     1.00E-05
                        --------------------------------------------------------
                        level_shift [a.u.]:                                 0.00
                        added MOs                                        20    0
                        --------------------------------------------------------
                        Mixing method:                            BROYDEN_MIXING
                                                charge density mixing in g-space
                        --------------------------------------------------------
                        Smear method:                                FERMI_DIRAC
                        Electronic temperature [K]:                        300.0
                        Electronic temperature [a.u.]:                  9.50E-04
                        Accuracy threshold:                             1.00E-10
                        --------------------------------------------------------
                        No outer SCF

 PW_GRID| Information for grid number                                          1
 PW_GRID| Grid distributed over                                   100 processors
 PW_GRID| Real space group dimensions                                   100    1
 PW_GRID| the grid is blocked:                                                NO
 PW_GRID| Cutoff [a.u.]                                                    250.0
 PW_GRID| spherical cutoff:                                                   NO
 PW_GRID|   Bounds   1           -200     199                Points:         400
 PW_GRID|   Bounds   2           -180     179                Points:         360
 PW_GRID|   Bounds   3           -216     215                Points:         432
 PW_GRID| Volume element (a.u.^3)  0.2609E-02     Volume (a.u.^3)    162293.2191
 PW_GRID| Grid span                                                    FULLSPACE
 PW_GRID|   Distribution                         Average         Max         Min
 PW_GRID|   G-Vectors                           622080.0      622400      622000
 PW_GRID|   G-Rays                                1555.2        1556        1555
 PW_GRID|   Real Space Points                   622080.0      622080      622080

 PW_GRID| Information for grid number                                          2
 PW_GRID| Grid distributed over                                   100 processors
 PW_GRID| Real space group dimensions                                   100    1
 PW_GRID| the grid is blocked:                                                NO
 PW_GRID| Cutoff [a.u.]                                                     83.3
 PW_GRID| spherical cutoff:                                                   NO
 PW_GRID|   Bounds   1           -120     119                Points:         240
 PW_GRID|   Bounds   2           -100      99                Points:         200
 PW_GRID|   Bounds   3           -128     127                Points:         256
 PW_GRID| Volume element (a.u.^3)  0.1321E-01     Volume (a.u.^3)    162293.2191
 PW_GRID| Grid span                                                    FULLSPACE
 PW_GRID|   Distribution                         Average         Max         Min
 PW_GRID|   G-Vectors                           122880.0      123120      122640
 PW_GRID|   G-Rays                                 512.0         513         511
 PW_GRID|   Real Space Points                   122880.0      153600      102400

 PW_GRID| Information for grid number                                          3
 PW_GRID| Grid distributed over                                   100 processors
 PW_GRID| Real space group dimensions                                   100    1
 PW_GRID| the grid is blocked:                                                NO
 PW_GRID| Cutoff [a.u.]                                                     27.8
 PW_GRID| spherical cutoff:                                                   NO
 PW_GRID|   Bounds   1            -67      67                Points:         135
 PW_GRID|   Bounds   2            -60      59                Points:         120
 PW_GRID|   Bounds   3            -72      71                Points:         144
 PW_GRID| Volume element (a.u.^3)  0.6957E-01     Volume (a.u.^3)    162293.2191
 PW_GRID| Grid span                                                    FULLSPACE
 PW_GRID|   Distribution                         Average         Max         Min
 PW_GRID|   G-Vectors                            23328.0       23895       22815
 PW_GRID|   G-Rays                                 172.8         177         169
 PW_GRID|   Real Space Points                    23328.0       34560       17280

 PW_GRID| Information for grid number                                          4
 PW_GRID| Grid distributed over                                   100 processors
 PW_GRID| Real space group dimensions                                    10   10
 PW_GRID| the grid is blocked:                                                NO
 PW_GRID| Cutoff [a.u.]                                                      9.3
 PW_GRID| spherical cutoff:                                                   NO
 PW_GRID|   Bounds   1            -40      39                Points:          80
 PW_GRID|   Bounds   2            -36      35                Points:          72
 PW_GRID|   Bounds   3            -40      40                Points:          81
 PW_GRID| Volume element (a.u.^3)  0.3479         Volume (a.u.^3)    162293.2191
 PW_GRID| Grid span                                                    FULLSPACE
 PW_GRID|   Distribution                         Average         Max         Min
 PW_GRID|   G-Vectors                             4665.6        4800        4480
 PW_GRID|   G-Rays                                  58.3          60          56
 PW_GRID|   Real Space Points                     4665.6        5184        4536

 POISSON| Solver                                                        PERIODIC
 POISSON| Periodicity                                                        XYZ

 RS_GRID| Information for grid number                                          1
 RS_GRID|   Bounds   1           -200     199                Points:         400
 RS_GRID|   Bounds   2           -180     179                Points:         360
 RS_GRID|   Bounds   3           -216     215                Points:         432
 RS_GRID| Real space distribution over                                  5 groups
 RS_GRID| Real space distribution along direction                              1
 RS_GRID| Border size                                                         39
 RS_GRID| Real space distribution over                                  4 groups
 RS_GRID| Real space distribution along direction                              2
 RS_GRID| Border size                                                         39
 RS_GRID| Real space distribution over                                  5 groups
 RS_GRID| Real space distribution along direction                              3
 RS_GRID| Border size                                                         39
 RS_GRID|   Distribution                         Average         Max         Min
 RS_GRID|   Planes                                 158.0         158         158
 RS_GRID|   Distribution                         Average         Max         Min
 RS_GRID|   Planes                                 168.0         168         168
 RS_GRID|   Distribution                         Average         Max         Min
 RS_GRID|   Planes                                 164.4         165         164

 RS_GRID| Information for grid number                                          2
 RS_GRID|   Bounds   1           -120     119                Points:         240
 RS_GRID|   Bounds   2           -100      99                Points:         200
 RS_GRID|   Bounds   3           -128     127                Points:         256
 RS_GRID| Real space distribution over                                  5 groups
 RS_GRID| Real space distribution along direction                              1
 RS_GRID| Border size                                                         24
 RS_GRID| Real space distribution over                                  4 groups
 RS_GRID| Real space distribution along direction                              2
 RS_GRID| Border size                                                         24
 RS_GRID| Real space distribution over                                  5 groups
 RS_GRID| Real space distribution along direction                              3
 RS_GRID| Border size                                                         24
 RS_GRID|   Distribution                         Average         Max         Min
 RS_GRID|   Planes                                  96.0          96          96
 RS_GRID|   Distribution                         Average         Max         Min
 RS_GRID|   Planes                                  98.0          98          98
 RS_GRID|   Distribution                         Average         Max         Min
 RS_GRID|   Planes                                  99.2         100          99

 RS_GRID| Information for grid number                                          3
 RS_GRID|   Bounds   1            -67      67                Points:         135
 RS_GRID|   Bounds   2            -60      59                Points:         120
 RS_GRID|   Bounds   3            -72      71                Points:         144
 RS_GRID| Real space fully replicated
 RS_GRID| Group size                                                           1

 RS_GRID| Information for grid number                                          4
 RS_GRID|   Bounds   1            -40      39                Points:          80
 RS_GRID|   Bounds   2            -36      35                Points:          72
 RS_GRID|   Bounds   3            -40      40                Points:          81
 RS_GRID| Real space fully replicated
 RS_GRID| Group size                                                           1
 
 KPOINTS| Number of kpoint groups                                              4
 KPOINTS| Size of each kpoint group                                           25
 KPOINTS| Number of kpoints per group                                          1

 Number of electrons:                                                        132
 Number of occupied orbitals:                                                 66
 Number of molecular orbitals:                                                86

 Number of orbital functions:                                                408
 Number of independent orbital functions:                                    408

 Extrapolation method: initial_guess

 Atomic guess: The first density matrix is obtained in terms of atomic orbitals
               and electronic configurations assigned to each atomic kind

 Guess for atomic kind: Au

 Electronic structure
    Total number of core electrons                                         68.00
    Total number of valence electrons                                      11.00
    Total number of electrons                                              79.00
    Multiplicity                                                   not specified
    S   [  2.00  2.00  2.00  2.00  2.00] 1.00
    P   [  6.00  6.00  6.00  6.00]
    D   [ 10.00 10.00]10.00
    F   [ 14.00]
 

 *******************************************************************************
                  Iteration          Convergence                     Energy [au]
 *******************************************************************************
                          1         4.82062                     -29.858923021251
                          2         9.74282                     -21.505180762611
                          3        0.668139                     -32.871344772047
                          4        0.275835                     -32.923503906735
                          5        0.117591                     -32.928907950392
                          6        0.284438E-02                 -32.930060747725
                          7        0.102403E-03                 -32.930061417487
                          8        0.256606E-07                 -32.930061418346

 Energy components [Hartree]           Total Energy ::          -32.930061418346
                                        Band Energy ::           -2.476378331586
                                     Kinetic Energy ::           24.393681946408
                                   Potential Energy ::          -57.323743364755
                                      Virial (-V/T) ::            2.349942230562
                                        Core Energy ::          -59.878567251407
                                          XC Energy ::           -5.077084241289
                                     Coulomb Energy ::           32.025590074350
                       Total Pseudopotential Energy ::          -84.375612584754
                       Local Pseudopotential Energy ::          -67.274282149935
                    Nonlocal Pseudopotential Energy ::          -17.101330434819
                                        Confinement ::            1.033633869382

 Orbital energies  State     L     Occupation   Energy[a.u.]          Energy[eV]

                       1     0          1.000      -0.187957           -5.114562
 
                       1     2         10.000      -0.228842           -6.227112
 

 Total Electron Density at R=0:                                         0.000023
 Re-scaling the density matrix to get the right number of electrons
                  # Electrons              Trace(P)               Scaling factor
                          132               132.000                        1.000


 SCF WAVEFUNCTION OPTIMIZATION

  Step     Update method      Time    Convergence         Total energy    Change
  ------------------------------------------------------------------------------
     1 NoMix/Diag. 0.40E+00    2.5     0.20372565      -398.1176476508 -3.98E+02
     2 Broy./Diag. 0.40E+00    3.5     0.14713084      -402.9042170120 -4.79E+00
     3 Broy./Diag. 0.40E+00    3.5     0.13402432      -399.2975673378  3.61E+00
     4 Broy./Diag. 0.40E+00    3.4     0.13349003      -397.5370288234  1.76E+00
     5 Broy./Diag. 0.40E+00    3.5     0.02713698      -398.2537267636 -7.17E-01
     6 Broy./Diag. 0.40E+00    3.5     0.00958045      -398.4048071193 -1.51E-01
     7 Broy./Diag. 0.40E+00    4.0     0.01589762      -398.3661829488  3.86E-02
     8 Broy./Diag. 0.40E+00    4.0     0.02344084      -398.3062092966  6.00E-02
     9 Broy./Diag. 0.40E+00    3.9     0.01377131      -398.3191214639 -1.29E-02
    10 Broy./Diag. 0.40E+00    3.9     0.00191031      -398.3379722718 -1.89E-02
    11 Broy./Diag. 0.40E+00    3.9     0.00610005      -398.3154766584  2.25E-02
    12 Broy./Diag. 0.40E+00    4.0     0.00807167      -398.3344612440 -1.90E-02
    13 Broy./Diag. 0.40E+00    3.9     0.00476983      -398.3317846710  2.68E-03
    14 Broy./Diag. 0.40E+00    3.9     0.00211721      -398.3223923688  9.39E-03
    15 Broy./Diag. 0.40E+00    3.8     0.00337239      -398.3249675864 -2.58E-03
    16 Broy./Diag. 0.40E+00    3.8     0.00285988      -398.3249966090 -2.90E-05
    17 Broy./Diag. 0.40E+00    3.7     0.00089968      -398.3258943539 -8.98E-04
    18 Broy./Diag. 0.40E+00    3.7     0.00295077      -398.3255951887  2.99E-04
    19 Broy./Diag. 0.40E+00    4.0     0.00275017      -398.3275133472 -1.92E-03
    20 Broy./Diag. 0.40E+00    4.0     0.00049932      -398.3277857278 -2.72E-04
    21 Broy./Diag. 0.40E+00    4.0     0.00040942      -398.3268656704  9.20E-04
    22 Broy./Diag. 0.40E+00    3.9     0.00060427      -398.3276076769 -7.42E-04
    23 Broy./Diag. 0.40E+00    3.9     0.00062411      -398.3269236089  6.84E-04
    24 Broy./Diag. 0.40E+00    3.8     0.00025392      -398.3262224449  7.01E-04
    25 Broy./Diag. 0.40E+00    3.8     0.00023955      -398.3268445285 -6.22E-04
    26 Broy./Diag. 0.40E+00    3.9     0.00024339      -398.3267531659  9.14E-05
    27 Broy./Diag. 0.40E+00    4.4     0.00016152      -398.3268176654 -6.45E-05
    28 Broy./Diag. 0.40E+00    4.1     0.00014704      -398.3268147145  2.95E-06
    29 Broy./Diag. 0.40E+00    4.0     0.00014101      -398.3268783842 -6.37E-05
    30 Broy./Diag. 0.40E+00    3.9     0.00004618      -398.3268359368  4.24E-05
    31 Broy./Diag. 0.40E+00    3.9     0.00003205      -398.3267509464  8.50E-05
    32 Broy./Diag. 0.40E+00    3.9     0.00005780      -398.3267976469 -4.67E-05
    33 Broy./Diag. 0.40E+00    4.0     0.00005028      -398.3267042772  9.34E-05
    34 Broy./Diag. 0.40E+00    4.0     0.00003645      -398.3266973253  6.95E-06
    35 Broy./Diag. 0.40E+00    4.0     0.00002026      -398.3267663044 -6.90E-05
    36 Broy./Diag. 0.40E+00    4.0     0.00002331      -398.3267075818  5.87E-05
    37 Broy./Diag. 0.40E+00    3.9     0.00002837      -398.3267217614 -1.42E-05
    38 Broy./Diag. 0.40E+00    3.9     0.00001511      -398.3267271136 -5.35E-06
    39 Broy./Diag. 0.40E+00    4.1     0.00001682      -398.3267164840  1.06E-05
    40 Broy./Diag. 0.40E+00    4.2     0.00001814      -398.3267089553  7.53E-06
    41 Broy./Diag. 0.40E+00    4.1     0.00000714      -398.3267106951 -1.74E-06
    42 Broy./Diag. 0.40E+00    4.0     0.00000393      -398.3267008053  9.89E-06
    43 Broy./Diag. 0.40E+00    4.0     0.00000260      -398.3267027572 -1.95E-06
    44 Broy./Diag. 0.40E+00    3.9     0.00000333      -398.3266963137  6.44E-06
    45 Broy./Diag. 0.40E+00    3.9     0.00000506      -398.3267070808 -1.08E-05
    46 Broy./Diag. 0.40E+00    3.9     0.00000342      -398.3266969818  1.01E-05
    47 Broy./Diag. 0.40E+00    4.4     0.00000379      -398.3266981746 -1.19E-06
    48 Broy./Diag. 0.40E+00    4.1     0.00000291      -398.3266995126 -1.34E-06
    49 Broy./Diag. 0.40E+00    4.0     0.00000286      -398.3266966956  2.82E-06
    50 Broy./Diag. 0.40E+00    3.9     0.00000302      -398.3266971278 -4.32E-07
    51 Broy./Diag. 0.40E+00    3.9     0.00000169      -398.3266957936  1.33E-06
    52 Broy./Diag. 0.40E+00    3.9     0.00000207      -398.3266950423  7.51E-07
    53 Broy./Diag. 0.40E+00    3.9     0.00000130      -398.3266970847 -2.04E-06
    54 Broy./Diag. 0.40E+00    4.0     0.00000042      -398.3266961554  9.29E-07
    55 Broy./Diag. 0.40E+00    3.9     0.00000057      -398.3266969108 -7.55E-07
    56 Broy./Diag. 0.40E+00    3.9     0.00000092      -398.3266972685 -3.58E-07
    57 Broy./Diag. 0.40E+00    3.8     0.00000067      -398.3266974037 -1.35E-07
    58 Broy./Diag. 0.40E+00    3.9     0.00000052      -398.3266979747 -5.71E-07
    59 Broy./Diag. 0.40E+00    4.1     0.00000030      -398.3266969739  1.00E-06
    60 Broy./Diag. 0.40E+00    4.0     0.00000029      -398.3266977113 -7.37E-07
    61 Broy./Diag. 0.40E+00    4.0     0.00000036      -398.3266977210 -9.62E-09
    62 Broy./Diag. 0.40E+00    3.9     0.00000013      -398.3266974740  2.47E-07
    63 Broy./Diag. 0.40E+00    3.8     0.00000007      -398.3266977911 -3.17E-07

  *** SCF run converged in    63 steps ***


  Electronic density on regular grids:       -132.0000000000       -0.0000000000
  Core density on regular grids:              132.0000000000       -0.0000000000
  Total charge density on r-space grids:       -0.0000000000
  Total charge density g-space grids:          -0.0000000000

  Overlap energy of the core charge distribution:               0.00000532392887
  Self energy of the core charge distribution:               -694.24006382317145
  Core Hamiltonian energy:                                    222.42649214090343
  Hartree energy:                                             135.84075328041877
  Exchange-correlation energy:                                -62.34947159723150
  Electronic entropic energy:                                  -0.00441311596942
  Fermi energy:                                                -0.18273332596676

  Total energy:                                              -398.32669779110296

 !-----------------------------------------------------------------------------!
                     Mulliken Population Analysis

 #  Atom  Element  Kind  Atomic population                           Net charge
       1     Au       1         10.943988                              0.056012
       2     Au       1         10.943988                              0.056012
       3     Au       1         10.944002                              0.055998
       4     Au       1         11.037064                             -0.037064
       5     Au       1         11.094152                             -0.094152
       6     Au       1         11.036806                             -0.036806
       7     Au       1         11.036806                             -0.036806
       8     Au       1         11.094152                             -0.094152
       9     Au       1         11.037062                             -0.037062
      10     Au       1         10.943999                              0.056001
      11     Au       1         10.943990                              0.056010
      12     Au       1         10.943990                              0.056010
 # Total charge                            132.000000                  0.000000

 !-----------------------------------------------------------------------------!

 !-----------------------------------------------------------------------------!
                           Hirshfeld Charges

  #Atom  Element  Kind  Ref Charge     Population                    Net charge
      1       Au     1      11.000         10.956                         0.044
      2       Au     1      11.000         10.956                         0.044
      3       Au     1      11.000         10.956                         0.044
      4       Au     1      11.000         10.995                         0.005
      5       Au     1      11.000         11.100                        -0.100
      6       Au     1      11.000         11.037                        -0.037
      7       Au     1      11.000         11.037                        -0.037
      8       Au     1      11.000         11.100                        -0.100
      9       Au     1      11.000         10.995                         0.005
     10       Au     1      11.000         10.956                         0.044
     11       Au     1      11.000         10.956                         0.044
     12       Au     1      11.000         10.956                         0.044

  Total Charge                                                            0.000
 !-----------------------------------------------------------------------------!

 ENERGY| Total FORCE_EVAL ( QS ) energy (a.u.):             -398.326697791102958


 -------------------------------------------------------------------------------
 -                                                                             -
 -                                DBCSR STATISTICS                             -
 -                                                                             -
 -------------------------------------------------------------------------------
 COUNTER                                    TOTAL       BLAS       SMM       ACC
 flops inhomo. stacks                           0       0.0%      0.0%      0.0%
 flops total                         0.000000E+00       0.0%      0.0%      0.0%
 flops max/rank                      0.000000E+00       0.0%      0.0%      0.0%
 matmuls inhomo. stacks                         0       0.0%      0.0%      0.0%
 matmuls total                                  0       0.0%      0.0%      0.0%
 number of processed stacks                     0       0.0%      0.0%      0.0%
 average stack size                                     0.0       0.0       0.0
 marketing flops                     0.000000E+00
 -------------------------------------------------------------------------------
 
 MEMORY| Estimated peak process memory [MiB]                                 740

 -------------------------------------------------------------------------------
 ----                             MULTIGRID INFO                            ----
 -------------------------------------------------------------------------------
 count for grid        1:         120075          cutoff [a.u.]          250.00
 count for grid        2:         528517          cutoff [a.u.]           83.33
 count for grid        3:         244297          cutoff [a.u.]           27.78
 count for grid        4:         128204          cutoff [a.u.]            9.26
 total gridlevel count  :        1021093

 -------------------------------------------------------------------------------
 -                                                                             -
 -                         MESSAGE PASSING PERFORMANCE                         -
 -                                                                             -
 -------------------------------------------------------------------------------

 ROUTINE             CALLS      AVE VOLUME [Bytes]
 MP_Group             1074
 MP_Bcast             9181                  33198.
 MP_Allreduce         3584                    842.
 MP_Sync                 4
 MP_Alltoall         22793                1384674.
 MP_ISendRecv        25146                 158976.
 MP_Wait             39282
 MP_ISend            13864                 397290.
 MP_IRecv            17266                 318593.
 MP_Recv               720                 104448.
 MP_Write_All            1                1023840.
 -------------------------------------------------------------------------------


 -------------------------------------------------------------------------------
 -                                                                             -
 -                           R E F E R E N C E S                               -
 -                                                                             -
 -------------------------------------------------------------------------------
 
 CP2K version 6.1, the CP2K developers group (2018).
 CP2K is freely available from https://www.cp2k.org/ .

 Schuett, Ole; Messmer, Peter; Hutter, Juerg; VandeVondele, Joost. 
 Electronic Structure Calculations on Graphics Processing Units, John Wiley & Sons, Ltd, 173-190 (2016). 
 GPU-Accelerated Sparse Matrix-Matrix Multiplication for Linear Scaling Density Functional Theory.
 http://dx.doi.org/10.1002/9781118670712.ch8


 Borstnik, U; VandeVondele, J; Weber, V; Hutter, J. 
 PARALLEL COMPUTING, 40 (5-6), 47-58 (2014). 
 Sparse matrix multiplication: The distributed block-compressed sparse
 row library.
 http://dx.doi.org/10.1016/j.parco.2014.03.012


 Hutter, J; Iannuzzi, M; Schiffmann, F; VandeVondele, J. 
 WILEY INTERDISCIPLINARY REVIEWS-COMPUTATIONAL MOLECULAR SCIENCE, 4 (1), 15-25 (2014). 
 CP2K: atomistic simulations of condensed matter systems.
 http://dx.doi.org/10.1002/wcms.1159


 VandeVondele, J; Hutter, J. 
 JOURNAL OF CHEMICAL PHYSICS, 127 (11), 114105 (2007). 
 Gaussian basis sets for accurate calculations on molecular systems in
 gas and condensed phases.
 http://dx.doi.org/10.1063/1.2770708


 Krack, M. 
 THEORETICAL CHEMISTRY ACCOUNTS, 114 (1-3), 145-152 (2005). 
 Pseudopotentials for H to Kr optimized for gradient-corrected
 exchange-correlation functionals.
 http://dx.doi.org/10.1007/s00214-005-0655-y


 VandeVondele, J; Krack, M; Mohamed, F; Parrinello, M; Chassaing, T;
 Hutter, J. COMPUTER PHYSICS COMMUNICATIONS, 167 (2), 103-128 (2005). 
 QUICKSTEP: Fast and accurate density functional calculations using a
 mixed Gaussian and plane waves approach.
 http://dx.doi.org/10.1016/j.cpc.2004.12.014


 Frigo, M; Johnson, SG. 
 PROCEEDINGS OF THE IEEE, 93 (2), 216-231 (2005). 
 The design and implementation of FFTW3.
 http://dx.doi.org/10.1109/JPROC.2004.840301


 Hartwigsen, C; Goedecker, S; Hutter, J. 
 PHYSICAL REVIEW B, 58 (7), 3641-3662 (1998). 
 Relativistic separable dual-space Gaussian pseudopotentials from H to Rn.
 http://dx.doi.org/10.1103/PhysRevB.58.3641


 Lippert, G; Hutter, J; Parrinello, M. 
 MOLECULAR PHYSICS, 92 (3), 477-487 (1997). 
 A hybrid Gaussian and plane wave density functional scheme.
 http://dx.doi.org/10.1080/002689797170220


 Perdew, JP; Burke, K; Ernzerhof, M. 
 PHYSICAL REVIEW LETTERS, 77 (18), 3865-3868 (1996). 
 Generalized gradient approximation made simple.
 http://dx.doi.org/10.1103/PhysRevLett.77.3865


 Goedecker, S; Teter, M; Hutter, J. 
 PHYSICAL REVIEW B, 54 (3), 1703-1710 (1996). 
 Separable dual-space Gaussian pseudopotentials.
 http://dx.doi.org/10.1103/PhysRevB.54.1703


 -------------------------------------------------------------------------------
 -                                                                             -
 -                                T I M I N G                                  -
 -                                                                             -
 -------------------------------------------------------------------------------
 SUBROUTINE                       CALLS  ASD         SELF TIME        TOTAL TIME
                                MAXIMUM       AVERAGE  MAXIMUM  AVERAGE  MAXIMUM
 CP2K                                 1  1.0    0.053    0.095  249.286  249.287
 qs_energies                          1  2.0    0.001    0.002  248.527  248.528
 scf_env_do_scf                       1  3.0    0.000    0.001  246.220  246.228
 scf_env_do_scf_inner_loop           63  4.0    0.006    0.012  246.220  246.228
 qs_ks_update_qs_env                 63  5.0    0.002    0.002  143.127  143.134
 rebuild_ks_matrix                   63  6.0    0.000    0.000  143.075  143.080
 qs_ks_build_kohn_sham_matrix        63  7.0    0.018    0.020  143.074  143.080
 pw_transfer                       1265  9.4    0.269    0.341  115.153  122.791
 fft_wrap_pw1pw2                   1139 10.5    0.024    0.029  113.490  121.688
 fft_wrap_pw1pw2_250                758 11.5    9.250   11.877  108.617  115.630
 fft3d_ps                          1139 12.5   39.373   43.946   84.858  101.223
 qs_vxc_create                       63  8.0    0.003    0.005   87.724   88.900
 xc_vxc_pw_create                    63  9.0    0.702    1.122   87.720   88.897
 mp_alltoall_z22v                  1139 14.5   32.810   57.162   32.810   57.162
 qs_rho_update_rho                   64  5.0    0.001    0.001   47.020   47.024
 calculate_rho_elec                  64  6.0    0.424    3.485   47.020   47.024
 xc_rho_set_and_dset_create          63 10.0    0.527    0.613   43.588   46.654
 rs_pw_transfer                     511  9.5    0.010    0.013   45.314   45.680
 gspace_mixing                       62  5.0    0.193    0.199   44.906   44.912
 density_rs2pw                       64  7.0    0.006    0.008   42.358   43.096
 sum_up_and_integrate                63  8.0    0.904    1.327   39.932   39.939
 integrate_v_rspace                  63  9.0    0.251    3.799   39.027   39.414
 broyden_mixing                      62  6.0   29.337   36.322   35.607   37.337
 x_to_yz                            567 13.7    7.546   10.208   25.170   37.040
 potential_pw2rs                     63 10.0    0.029    0.035   35.107   35.536
 yz_to_x                            445 13.3    4.947    6.056   20.097   30.132
 mp_waitany                        6682 11.5   12.970   19.152   12.970   19.152
 rs_pw_transfer_RS2PW_250            66  9.0    8.815   11.449   15.375   15.997
 rs_pw_transfer_PW2RS_250            64 11.9    7.709   10.635   14.028   15.410
 mp_waitall_1                     32600 11.1    8.041   14.375    8.041   14.375
 xc_functional_eval                  63 11.0    0.001    0.002    9.494   12.672
 pbe_lda_eval                        63 12.0    9.492   12.670    9.492   12.670
 pw_scatter_p                       630 12.8   10.732   12.201   10.732   12.201
 qs_scf_new_mos_kp                   63  5.0    0.001    0.001   11.593   11.601
 do_general_diag_kp                  63  6.0    0.009    0.011   11.592   11.600
 pw_gather_p                        509 12.1    8.418   11.352    8.418   11.352
 mp_sum_dm                           62  7.0    4.511   11.059    4.511   11.059
 pw_derive                          378 10.5    7.063    9.803    7.063    9.803
 cp_cfm_geeig                        63  7.0    0.001    0.002    9.030    9.225
 mp_sum_d                          2754  7.6    4.505    8.139    4.505    8.139
 pw_copy                            694 10.5    4.887    6.559    4.887    6.559
 cp_cfm_heevd                        63  8.0    6.017    6.281    6.017    6.281
 rs_pw_transfer_PW2RS_90             63 12.0    0.926    1.239    3.899    5.812
 rs_grid_zero                       385  9.0    4.674    5.547    4.674    5.547
 mp_alltoall_d11v                 11072  9.4    4.562    5.356    4.562    5.356
 fft_wrap_pw1pw2_90                 127 11.5    0.164    0.234    3.782    5.173
 rs_pw_transfer_PW2RS_30             63 12.0    1.301    2.161    4.782    5.093
 pw_poisson_solve                    63  8.0    2.654    3.149    4.998    4.999
 -------------------------------------------------------------------------------

 The number of warnings for this run is : 1
 
 -------------------------------------------------------------------------------
  **** **** ******  **  PROGRAM ENDED AT                 2022-08-12 06:51:24.177
 ***** ** ***  *** **   PROGRAM RAN ON                cx3-14-17.cx3.hpc.ic.ac.uk
 **    ****   ******    PROGRAM RAN BY                                    jj1921
 ***** **    ** ** **   PROGRAM PROCESS ID                               1238994
  **** **  *******  **  PROGRAM STOPPED IN /rds/general/user/jj1921/home/junctio
                                           n/lateral/lateral_10/wire
