ATOMS
H             3.25353201      5.72009504     18.92650888            -0.70657706     -0.02681821      0.00544492
H             3.25943356      5.72541265     19.67644339             0.70657706      0.02681821     -0.00544492
