ATOMS
H             3.25353201      5.72009504     18.92650888            -0.02685461      0.70658100     -0.00470341
H             3.25943356      5.72541265     19.67644339             0.02685461     -0.70658100      0.00470341
