 DBCSR| Multiplication driver                                               BLAS
 DBCSR| Multrec recursion limit                                              512
 DBCSR| Multiplication stack size                                           1000
 DBCSR| Maximum elements for images                                    UNLIMITED
 DBCSR| Multiplicative factor virtual images                                   1
 DBCSR| Multiplication size stacks                                             3
 DBCSR| Number of 3D layers                                               SINGLE
 DBCSR| Use MPI memory allocation                                              T
 DBCSR| Use RMA algorithm                                                      F
 DBCSR| Use Communication thread                                               T
 DBCSR| Communication thread load                                             87


  **** **** ******  **  PROGRAM STARTED AT               2022-08-07 09:48:07.234
 ***** ** ***  *** **   PROGRAM STARTED ON            cx3-14-21.cx3.hpc.ic.ac.uk
 **    ****   ******    PROGRAM STARTED BY                                jj1921
 ***** **    ** ** **   PROGRAM PROCESS ID                               3286769
  **** **  *******  **  PROGRAM STARTED IN /rds/general/user/jj1921/home/junctio
                                           n/lateral/lateral_8

 CP2K| version string:                                          CP2K version 6.1
 CP2K| source code revision number:                                    svn:18464
 CP2K| cp2kflags: libint fftw3 parallel mpi3 scalapack has_no_shared_glibc max_c
 CP2K|            ontr=4 mkl
 CP2K| is freely available from                            https://www.cp2k.org/
 CP2K| Program compiled at                          Thu 12 Jul 13:52:12 BST 2018
 CP2K| Program compiled on                                  build-2.hpc.ic.ac.uk
 CP2K| Program compiled for                                   Linux-x86-64-intel
 CP2K| Data directory path                                   /tmp/cp2k/cp2k/data
 CP2K| Input file name                                           Au_junction.inp
 
 GLOBAL| Force Environment number                                              1
 GLOBAL| Basis set file name            /rds/general/user/jj1921/home/BASIS_COM_
 GLOBAL| Potential file name            /rds/general/user/jj1921/home/GTH_POTENT
 GLOBAL| MM Potential file name                                     MM_POTENTIAL
 GLOBAL| Coordinate file name                                     junction_8.xyz
 GLOBAL| Method name                                                        CP2K
 GLOBAL| Project name                                                Au_junction
 GLOBAL| Preferred FFT library                                             FFTW3
 GLOBAL| Preferred diagonalization lib.                                       SL
 GLOBAL| Run type                                                         ENERGY
 GLOBAL| All-to-all communication in single precision                          F
 GLOBAL| FFTs using library dependent lengths                                  F
 GLOBAL| Global print level                                               MEDIUM
 GLOBAL| Total number of message passing processes                           100
 GLOBAL| Number of threads for this process                                    1
 GLOBAL| This output is from process                                           0
 GLOBAL| CPU model name :  AMD EPYC 7742 64-Core Processor

 MEMORY| system memory details [Kb]
 MEMORY|                        rank 0           min           max       average
 MEMORY| MemTotal           1056637216    1056637216    1056637216    1056637216
 MEMORY| MemFree             960822504     960821832     960822504     960822396
 MEMORY| Buffers                     0             0             0             0
 MEMORY| Cached                6612792       6612780       6612792       6612790
 MEMORY| Slab                  3578228       3578228       3578228       3578228
 MEMORY| SReclaimable           544740        544740        544740        544740
 MEMORY| MemLikelyFree       967980036     967979352     967980036     967979926


 *** Fundamental physical constants (SI units) ***

 *** Literature: B. J. Mohr and B. N. Taylor,
 ***             CODATA recommended values of the fundamental physical
 ***             constants: 2006, Web Version 5.1
 ***             http://physics.nist.gov/constants

 Speed of light in vacuum [m/s]                             2.99792458000000E+08
 Magnetic constant or permeability of vacuum [N/A**2]       1.25663706143592E-06
 Electric constant or permittivity of vacuum [F/m]          8.85418781762039E-12
 Planck constant (h) [J*s]                                  6.62606896000000E-34
 Planck constant (h-bar) [J*s]                              1.05457162825177E-34
 Elementary charge [C]                                      1.60217648700000E-19
 Electron mass [kg]                                         9.10938215000000E-31
 Electron g factor [ ]                                     -2.00231930436220E+00
 Proton mass [kg]                                           1.67262163700000E-27
 Fine-structure constant                                    7.29735253760000E-03
 Rydberg constant [1/m]                                     1.09737315685270E+07
 Avogadro constant [1/mol]                                  6.02214179000000E+23
 Boltzmann constant [J/K]                                   1.38065040000000E-23
 Atomic mass unit [kg]                                      1.66053878200000E-27
 Bohr radius [m]                                            5.29177208590000E-11

 *** Conversion factors ***

 [u] -> [a.u.]                                              1.82288848426455E+03
 [Angstrom] -> [Bohr] = [a.u.]                              1.88972613288564E+00
 [a.u.] = [Bohr] -> [Angstrom]                              5.29177208590000E-01
 [a.u.] -> [s]                                              2.41888432650478E-17
 [a.u.] -> [fs]                                             2.41888432650478E-02
 [a.u.] -> [J]                                              4.35974393937059E-18
 [a.u.] -> [N]                                              8.23872205491840E-08
 [a.u.] -> [K]                                              3.15774647902944E+05
 [a.u.] -> [kJ/mol]                                         2.62549961709828E+03
 [a.u.] -> [kcal/mol]                                       6.27509468713739E+02
 [a.u.] -> [Pa]                                             2.94210107994716E+13
 [a.u.] -> [bar]                                            2.94210107994716E+08
 [a.u.] -> [atm]                                            2.90362800883016E+08
 [a.u.] -> [eV]                                             2.72113838565563E+01
 [a.u.] -> [Hz]                                             6.57968392072181E+15
 [a.u.] -> [1/cm] (wave numbers)                            2.19474631370540E+05
 [a.u./Bohr**2] -> [1/cm]                                   5.14048714338585E+03
 

 CELL_TOP| Volume [angstrom^3]:                                        15391.599
 CELL_TOP| Vector a [angstrom    23.749     0.000     0.000    |a| =      23.749
 CELL_TOP| Vector b [angstrom     0.000    20.567     0.000    |b| =      20.567
 CELL_TOP| Vector c [angstrom     0.000     0.000    31.511    |c| =      31.511
 CELL_TOP| Angle (b,c), alpha [degree]:                                   90.000
 CELL_TOP| Angle (a,c), beta  [degree]:                                   90.000
 CELL_TOP| Angle (a,b), gamma [degree]:                                   90.000
 CELL_TOP| Requested initial symmetry:                              ORTHORHOMBIC
 CELL_TOP| Numerically orthorhombic:                                         YES
 
 GENERATE|  Preliminary Number of Bonds generated:                             0
 GENERATE|  Achieved consistency in connectivity generation.

 CELL| Volume [angstrom^3]:                                            15391.599
 CELL| Vector a [angstrom]:      23.749     0.000     0.000    |a| =      23.749
 CELL| Vector b [angstrom]:       0.000    20.567     0.000    |b| =      20.567
 CELL| Vector c [angstrom]:       0.000     0.000    31.511    |c| =      31.511
 CELL| Angle (b,c), alpha [degree]:                                       90.000
 CELL| Angle (a,c), beta  [degree]:                                       90.000
 CELL| Angle (a,b), gamma [degree]:                                       90.000
 CELL| Requested initial symmetry:                                  ORTHORHOMBIC
 CELL| Numerically orthorhombic:                                             YES

 CELL_REF| Volume [angstrom^3]:                                        15391.599
 CELL_REF| Vector a [angstrom    23.749     0.000     0.000    |a| =      23.749
 CELL_REF| Vector b [angstrom     0.000    20.567     0.000    |b| =      20.567
 CELL_REF| Vector c [angstrom     0.000     0.000    31.511    |c| =      31.511
 CELL_REF| Angle (b,c), alpha [degree]:                                   90.000
 CELL_REF| Angle (a,c), beta  [degree]:                                   90.000
 CELL_REF| Angle (a,b), gamma [degree]:                                   90.000
 CELL_REF| Requested initial symmetry:                              ORTHORHOMBIC
 CELL_REF| Numerically orthorhombic:                                         YES

 *** WARNING in cryssym.F:163 :: Symmetry library SPGLIB not available ***


 *******************************************************************************
                                    Kpoints
 *******************************************************************************
 BRILLOUIN| K-point scheme                                        Monkhorst-Pack
 BRILLOUIN| K-Point grid                                             3    3    1
 BRILLOUIN| Accuracy in Symmetry determination                      0.100000E-05
 BRILLOUIN| K-Point point group symmetrization                               OFF
 BRILLOUIN| Wavefunction type                                            COMPLEX
 BRILLOUIN| Use full k-point grid     
 BRILLOUIN| List of Kpoints [2 Pi/Bohr]                                        9
 BRILLOUIN| Number           Weight            X              Y              Z
 BRILLOUIN|     1           0.11111       -0.33333       -0.33333        0.00000
 BRILLOUIN|     2           0.11111       -0.33333        0.00000        0.00000
 BRILLOUIN|     3           0.11111       -0.33333        0.33333        0.00000
 BRILLOUIN|     4           0.11111        0.00000       -0.33333        0.00000
 BRILLOUIN|     5           0.11111        0.00000        0.00000        0.00000
 BRILLOUIN|     6           0.11111        0.00000        0.33333        0.00000
 BRILLOUIN|     7           0.11111        0.33333       -0.33333        0.00000
 BRILLOUIN|     8           0.11111        0.33333        0.00000        0.00000
 BRILLOUIN|     9           0.11111        0.33333        0.33333        0.00000
 *******************************************************************************

 *******************************************************************************
 *******************************************************************************
 **                                                                           **
 **     #####                         ##              ##                      **
 **    ##   ##            ##          ##              ##                      **
 **   ##     ##                       ##            ######                    **
 **   ##     ##  ##   ##  ##   #####  ##  ##   ####   ##    #####    #####    **
 **   ##     ##  ##   ##  ##  ##      ## ##   ##      ##   ##   ##  ##   ##   **
 **   ##  ## ##  ##   ##  ##  ##      ####     ###    ##   ######   ######    **
 **    ##  ###   ##   ##  ##  ##      ## ##      ##   ##   ##       ##        **
 **     #######   #####   ##   #####  ##  ##  ####    ##    #####   ##        **
 **           ##                                                    ##        **
 **                                                                           **
 **                                                ... make the atoms dance   **
 **                                                                           **
 **            Copyright (C) by CP2K developers group (2000 - 2018)           **
 **                                                                           **
 *******************************************************************************

 DFT| Spin restricted Kohn-Sham (RKS) calculation                            RKS
 DFT| Multiplicity                                                             1
 DFT| Number of spin states                                                    1
 DFT| Charge                                                                   0
 DFT| Self-interaction correction (SIC)                                       NO
 DFT| Cutoffs: density                                              1.000000E-10
 DFT|          gradient                                             1.000000E-10
 DFT|          tau                                                  1.000000E-10
 DFT|          cutoff_smoothing_range                               0.000000E+00
 DFT| XC density smoothing                                                  NONE
 DFT| XC derivatives                                                          PW
 FUNCTIONAL| ROUTINE=NEW
 FUNCTIONAL| PBE:
 FUNCTIONAL| J.P.Perdew, K.Burke, M.Ernzerhof, Phys. Rev. Letter, vol. 77, n 18,
 FUNCTIONAL|  pp. 3865-3868, (1996){spin unpolarized}                           

 QS| Method:                                                                 GPW
 QS| Density plane wave grid type                        NON-SPHERICAL FULLSPACE
 QS| Number of grid levels:                                                    4
 QS| Density cutoff [a.u.]:                                                250.0
 QS| Multi grid cutoff [a.u.]: 1) grid level                               250.0
 QS|                           2) grid level                                83.3
 QS|                           3) grid level                                27.8
 QS|                           4) grid level                                 9.3
 QS| Grid level progression factor:                                          3.0
 QS| Relative density cutoff [a.u.]:                                        20.0
 QS| Consistent realspace mapping and integration 
 QS| Interaction thresholds: eps_pgf_orb:                                1.0E-07
 QS|                         eps_filter_matrix:                          0.0E+00
 QS|                         eps_core_charge:                            1.0E-16
 QS|                         eps_rho_gspace:                             1.0E-14
 QS|                         eps_rho_rspace:                             1.0E-14
 QS|                         eps_gvg_rspace:                             1.0E-07
 QS|                         eps_ppl:                                    1.0E-02
 QS|                         eps_ppnl:                                   1.0E-09


 ATOMIC KIND INFORMATION

  1. Atomic kind: Au                                    Number of atoms:     332

     Orbital Basis Set                                    TZVP-MOLOPT-SR-GTH-q11

       Number of orbital shell sets:                                           1
       Number of orbital shells:                                              10
       Number of primitive Cartesian functions:                                5
       Number of Cartesian basis functions:                                   40
       Number of spherical basis functions:                                   34
       Norm type:                                                              2

       Normalised Cartesian orbitals:

                        Set   Shell   Orbital            Exponent    Coefficient

                          1       1    2s                2.950008       0.049750
                                                         1.563057       0.267328
                                                         0.666664      -0.551598
                                                         0.251083       0.072002
                                                         0.081714       0.114867

                          1       2    3s                2.950008      -0.078739
                                                         1.563057       0.378930
                                                         0.666664      -0.110770
                                                         0.251083      -0.245520
                                                         0.081714      -0.004637

                          1       3    4s                2.950008      -0.053770
                                                         1.563057      -0.237101
                                                         0.666664       0.396801
                                                         0.251083      -0.074391
                                                         0.081714       0.097129

                          1       4    3px               2.950008      -0.287410
                                                         1.563057      -0.046810
                                                         0.666664       0.090038
                                                         0.251083       0.061414
                                                         0.081714       0.048416
                          1       4    3py               2.950008      -0.287410
                                                         1.563057      -0.046810
                                                         0.666664       0.090038
                                                         0.251083       0.061414
                                                         0.081714       0.048416
                          1       4    3pz               2.950008      -0.287410
                                                         1.563057      -0.046810
                                                         0.666664       0.090038
                                                         0.251083       0.061414
                                                         0.081714       0.048416

                          1       5    4px               2.950008      -0.031230
                                                         1.563057      -0.259325
                                                         0.666664       0.363713
                                                         0.251083      -0.386040
                                                         0.081714       0.025850
                          1       5    4py               2.950008      -0.031230
                                                         1.563057      -0.259325
                                                         0.666664       0.363713
                                                         0.251083      -0.386040
                                                         0.081714       0.025850
                          1       5    4pz               2.950008      -0.031230
                                                         1.563057      -0.259325
                                                         0.666664       0.363713
                                                         0.251083      -0.386040
                                                         0.081714       0.025850

                          1       6    5px               2.950008      -0.634652
                                                         1.563057      -0.963299
                                                         0.666664       0.995880
                                                         0.251083       0.070517
                                                         0.081714      -0.016209
                          1       6    5py               2.950008      -0.634652
                                                         1.563057      -0.963299
                                                         0.666664       0.995880
                                                         0.251083       0.070517
                                                         0.081714      -0.016209
                          1       6    5pz               2.950008      -0.634652
                                                         1.563057      -0.963299
                                                         0.666664       0.995880
                                                         0.251083       0.070517
                                                         0.081714      -0.016209

                          1       7    4dx2              2.950008       0.572996
                                                         1.563057       0.322251
                                                         0.666664       0.300173
                                                         0.251083       0.099388
                                                         0.081714      -0.001351
                          1       7    4dxy              2.950008       0.992458
                                                         1.563057       0.558156
                                                         0.666664       0.519915
                                                         0.251083       0.172145
                                                         0.081714      -0.002339
                          1       7    4dxz              2.950008       0.992458
                                                         1.563057       0.558156
                                                         0.666664       0.519915
                                                         0.251083       0.172145
                                                         0.081714      -0.002339
                          1       7    4dy2              2.950008       0.572996
                                                         1.563057       0.322251
                                                         0.666664       0.300173
                                                         0.251083       0.099388
                                                         0.081714      -0.001351
                          1       7    4dyz              2.950008       0.992458
                                                         1.563057       0.558156
                                                         0.666664       0.519915
                                                         0.251083       0.172145
                                                         0.081714      -0.002339
                          1       7    4dz2              2.950008       0.572996
                                                         1.563057       0.322251
                                                         0.666664       0.300173
                                                         0.251083       0.099388
                                                         0.081714      -0.001351

                          1       8    5dx2              2.950008      -0.221363
                                                         1.563057      -0.288021
                                                         0.666664      -0.277201
                                                         0.251083       0.041335
                                                         0.081714       0.017516
                          1       8    5dxy              2.950008      -0.383413
                                                         1.563057      -0.498867
                                                         0.666664      -0.480127
                                                         0.251083       0.071593
                                                         0.081714       0.030338
                          1       8    5dxz              2.950008      -0.383413
                                                         1.563057      -0.498867
                                                         0.666664      -0.480127
                                                         0.251083       0.071593
                                                         0.081714       0.030338
                          1       8    5dy2              2.950008      -0.221363
                                                         1.563057      -0.288021
                                                         0.666664      -0.277201
                                                         0.251083       0.041335
                                                         0.081714       0.017516
                          1       8    5dyz              2.950008      -0.383413
                                                         1.563057      -0.498867
                                                         0.666664      -0.480127
                                                         0.251083       0.071593
                                                         0.081714       0.030338
                          1       8    5dz2              2.950008      -0.221363
                                                         1.563057      -0.288021
                                                         0.666664      -0.277201
                                                         0.251083       0.041335
                                                         0.081714       0.017516

                          1       9    6dx2              2.950008      -1.281149
                                                         1.563057       2.633116
                                                         0.666664       0.400943
                                                         0.251083      -0.047276
                                                         0.081714       0.007642
                          1       9    6dxy              2.950008      -2.219015
                                                         1.563057       4.560691
                                                         0.666664       0.694454
                                                         0.251083      -0.081884
                                                         0.081714       0.013236
                          1       9    6dxz              2.950008      -2.219015
                                                         1.563057       4.560691
                                                         0.666664       0.694454
                                                         0.251083      -0.081884
                                                         0.081714       0.013236
                          1       9    6dy2              2.950008      -1.281149
                                                         1.563057       2.633116
                                                         0.666664       0.400943
                                                         0.251083      -0.047276
                                                         0.081714       0.007642
                          1       9    6dyz              2.950008      -2.219015
                                                         1.563057       4.560691
                                                         0.666664       0.694454
                                                         0.251083      -0.081884
                                                         0.081714       0.013236
                          1       9    6dz2              2.950008      -1.281149
                                                         1.563057       2.633116
                                                         0.666664       0.400943
                                                         0.251083      -0.047276
                                                         0.081714       0.007642

                          1      10    5fx3              2.950008      -0.471653
                                                         1.563057       0.476248
                                                         0.666664      -0.241506
                                                         0.251083      -0.039345
                                                         0.081714      -0.001389
                          1      10    5fx2y             2.950008      -1.054649
                                                         1.563057       1.064923
                                                         0.666664      -0.540024
                                                         0.251083      -0.087977
                                                         0.081714      -0.003106
                          1      10    5fx2z             2.950008      -1.054649
                                                         1.563057       1.064923
                                                         0.666664      -0.540024
                                                         0.251083      -0.087977
                                                         0.081714      -0.003106
                          1      10    5fxy2             2.950008      -1.054649
                                                         1.563057       1.064923
                                                         0.666664      -0.540024
                                                         0.251083      -0.087977
                                                         0.081714      -0.003106
                          1      10    5fxyz             2.950008      -1.826705
                                                         1.563057       1.844501
                                                         0.666664      -0.935348
                                                         0.251083      -0.152381
                                                         0.081714      -0.005380
                          1      10    5fxz2             2.950008      -1.054649
                                                         1.563057       1.064923
                                                         0.666664      -0.540024
                                                         0.251083      -0.087977
                                                         0.081714      -0.003106
                          1      10    5fy3              2.950008      -0.471653
                                                         1.563057       0.476248
                                                         0.666664      -0.241506
                                                         0.251083      -0.039345
                                                         0.081714      -0.001389
                          1      10    5fy2z             2.950008      -1.054649
                                                         1.563057       1.064923
                                                         0.666664      -0.540024
                                                         0.251083      -0.087977
                                                         0.081714      -0.003106
                          1      10    5fyz2             2.950008      -1.054649
                                                         1.563057       1.064923
                                                         0.666664      -0.540024
                                                         0.251083      -0.087977
                                                         0.081714      -0.003106
                          1      10    5fz3              2.950008      -0.471653
                                                         1.563057       0.476248
                                                         0.666664      -0.241506
                                                         0.251083      -0.039345
                                                         0.081714      -0.001389

     GTH Potential information for                                   GTH-PBE-q11

       Description:                       Goedecker-Teter-Hutter pseudopotential
                                           Goedecker et al., PRB 54, 1703 (1996)
                                          Hartwigsen et al., PRB 58, 3641 (1998)
                                                      Krack, TCA 114, 145 (2005)

       Gaussian exponent of the core charge distribution:               1.436369
       Electronic configuration (s p d ...):                           1   0  10

       Parameters of the local part of the GTH pseudopotential:

                          rloc        C1          C2          C3          C4
                        0.590000   10.517179

       Parameters of the non-local part of the GTH pseudopotential:

                   l      r(l)      h(i,j,l)

                   0    0.543847    5.786811   -2.250680
                                   -2.250680    2.905615
                   1    0.609173    4.284049   -4.071285
                                   -4.071285    4.817210
                   2    0.437309   -7.403281    3.010193
                                    3.010193   -3.413238


 MOLECULE KIND INFORMATION


 All atoms are their own molecule, skipping detailed information


 TOTAL NUMBERS AND MAXIMUM NUMBERS

  Total number of            - Atomic kinds:                                   1
                             - Atoms:                                        332
                             - Shell sets:                                   332
                             - Shells:                                      3320
                             - Primitive Cartesian functions:               1660
                             - Cartesian basis functions:                  13280
                             - Spherical basis functions:                  11288

  Maximum angular momentum of- Orbital basis functions:                        3
                             - Local part of the GTH pseudopotential:          0
                             - Non-local part of the GTH pseudopotential:      4


 MODULE QUICKSTEP:  ATOMIC COORDINATES IN angstrom

  Atom  Kind  Element       X           Y           Z          Z(eff)       Mass

       1     1 Au  79    1.484323    0.856974    0.000000     11.00     196.9666
       2     1 Au  79    4.452970    0.856974    0.000000     11.00     196.9666
       3     1 Au  79    7.421616    0.856974    0.000000     11.00     196.9666
       4     1 Au  79   10.390262    0.856974    0.000000     11.00     196.9666
       5     1 Au  79   13.358909    0.856974    0.000000     11.00     196.9666
       6     1 Au  79   16.327555    0.856974    0.000000     11.00     196.9666
       7     1 Au  79   19.296202    0.856974    0.000000     11.00     196.9666
       8     1 Au  79   22.264848    0.856974    0.000000     11.00     196.9666
       9     1 Au  79    0.000000    3.427898    0.000000     11.00     196.9666
      10     1 Au  79    2.968646    3.427898    0.000000     11.00     196.9666
      11     1 Au  79    5.937293    3.427898    0.000000     11.00     196.9666
      12     1 Au  79    8.905939    3.427898    0.000000     11.00     196.9666
      13     1 Au  79   11.874586    3.427898    0.000000     11.00     196.9666
      14     1 Au  79   14.843232    3.427898    0.000000     11.00     196.9666
      15     1 Au  79   17.811878    3.427898    0.000000     11.00     196.9666
      16     1 Au  79   20.780525    3.427898    0.000000     11.00     196.9666
      17     1 Au  79    1.484323    5.998821    0.000000     11.00     196.9666
      18     1 Au  79    4.452970    5.998821    0.000000     11.00     196.9666
      19     1 Au  79    7.421616    5.998821    0.000000     11.00     196.9666
      20     1 Au  79   10.390262    5.998821    0.000000     11.00     196.9666
      21     1 Au  79   13.358909    5.998821    0.000000     11.00     196.9666
      22     1 Au  79   16.327555    5.998821    0.000000     11.00     196.9666
      23     1 Au  79   19.296202    5.998821    0.000000     11.00     196.9666
      24     1 Au  79   22.264848    5.998821    0.000000     11.00     196.9666
      25     1 Au  79    0.000000    8.569744    0.000000     11.00     196.9666
      26     1 Au  79    2.968646    8.569744    0.000000     11.00     196.9666
      27     1 Au  79    5.937293    8.569744    0.000000     11.00     196.9666
      28     1 Au  79    8.905939    8.569744    0.000000     11.00     196.9666
      29     1 Au  79   11.874586    8.569744    0.000000     11.00     196.9666
      30     1 Au  79   14.843232    8.569744    0.000000     11.00     196.9666
      31     1 Au  79   17.811878    8.569744    0.000000     11.00     196.9666
      32     1 Au  79   20.780525    8.569744    0.000000     11.00     196.9666
      33     1 Au  79    1.484323   11.140667    0.000000     11.00     196.9666
      34     1 Au  79    4.452970   11.140667    0.000000     11.00     196.9666
      35     1 Au  79    7.421616   11.140667    0.000000     11.00     196.9666
      36     1 Au  79   10.390262   11.140667    0.000000     11.00     196.9666
      37     1 Au  79   13.358909   11.140667    0.000000     11.00     196.9666
      38     1 Au  79   16.327555   11.140667    0.000000     11.00     196.9666
      39     1 Au  79   19.296202   11.140667    0.000000     11.00     196.9666
      40     1 Au  79   22.264848   11.140667    0.000000     11.00     196.9666
      41     1 Au  79    0.000000   13.711590    0.000000     11.00     196.9666
      42     1 Au  79    2.968646   13.711590    0.000000     11.00     196.9666
      43     1 Au  79    5.937293   13.711590    0.000000     11.00     196.9666
      44     1 Au  79    8.905939   13.711590    0.000000     11.00     196.9666
      45     1 Au  79   11.874586   13.711590    0.000000     11.00     196.9666
      46     1 Au  79   14.843232   13.711590    0.000000     11.00     196.9666
      47     1 Au  79   17.811878   13.711590    0.000000     11.00     196.9666
      48     1 Au  79   20.780525   13.711590    0.000000     11.00     196.9666
      49     1 Au  79    1.484323   16.282514    0.000000     11.00     196.9666
      50     1 Au  79    4.452970   16.282514    0.000000     11.00     196.9666
      51     1 Au  79    7.421616   16.282514    0.000000     11.00     196.9666
      52     1 Au  79   10.390262   16.282514    0.000000     11.00     196.9666
      53     1 Au  79   13.358909   16.282514    0.000000     11.00     196.9666
      54     1 Au  79   16.327555   16.282514    0.000000     11.00     196.9666
      55     1 Au  79   19.296202   16.282514    0.000000     11.00     196.9666
      56     1 Au  79   22.264848   16.282514    0.000000     11.00     196.9666
      57     1 Au  79    0.000000   18.853437    0.000000     11.00     196.9666
      58     1 Au  79    2.968646   18.853437    0.000000     11.00     196.9666
      59     1 Au  79    5.937293   18.853437    0.000000     11.00     196.9666
      60     1 Au  79    8.905939   18.853437    0.000000     11.00     196.9666
      61     1 Au  79   11.874586   18.853437    0.000000     11.00     196.9666
      62     1 Au  79   14.843232   18.853437    0.000000     11.00     196.9666
      63     1 Au  79   17.811878   18.853437    0.000000     11.00     196.9666
      64     1 Au  79   20.780525   18.853437    0.000000     11.00     196.9666
      65     1 Au  79    0.000000    1.713949    2.423890     11.00     196.9666
      66     1 Au  79    2.968646    1.713949    2.423890     11.00     196.9666
      67     1 Au  79    5.937293    1.713949    2.423890     11.00     196.9666
      68     1 Au  79    8.905939    1.713949    2.423890     11.00     196.9666
      69     1 Au  79   11.874586    1.713949    2.423890     11.00     196.9666
      70     1 Au  79   14.843232    1.713949    2.423890     11.00     196.9666
      71     1 Au  79   17.811878    1.713949    2.423890     11.00     196.9666
      72     1 Au  79   20.780525    1.713949    2.423890     11.00     196.9666
      73     1 Au  79    1.484323    4.284872    2.423890     11.00     196.9666
      74     1 Au  79    4.452970    4.284872    2.423890     11.00     196.9666
      75     1 Au  79    7.421616    4.284872    2.423890     11.00     196.9666
      76     1 Au  79   10.390262    4.284872    2.423890     11.00     196.9666
      77     1 Au  79   13.358909    4.284872    2.423890     11.00     196.9666
      78     1 Au  79   16.327555    4.284872    2.423890     11.00     196.9666
      79     1 Au  79   19.296202    4.284872    2.423890     11.00     196.9666
      80     1 Au  79   22.264848    4.284872    2.423890     11.00     196.9666
      81     1 Au  79    0.000000    6.855795    2.423890     11.00     196.9666
      82     1 Au  79    2.968646    6.855795    2.423890     11.00     196.9666
      83     1 Au  79    5.937293    6.855795    2.423890     11.00     196.9666
      84     1 Au  79    8.905939    6.855795    2.423890     11.00     196.9666
      85     1 Au  79   11.874586    6.855795    2.423890     11.00     196.9666
      86     1 Au  79   14.843232    6.855795    2.423890     11.00     196.9666
      87     1 Au  79   17.811878    6.855795    2.423890     11.00     196.9666
      88     1 Au  79   20.780525    6.855795    2.423890     11.00     196.9666
      89     1 Au  79    1.484323    9.426718    2.423890     11.00     196.9666
      90     1 Au  79    4.452970    9.426718    2.423890     11.00     196.9666
      91     1 Au  79    7.421616    9.426718    2.423890     11.00     196.9666
      92     1 Au  79   10.390262    9.426718    2.423890     11.00     196.9666
      93     1 Au  79   13.358909    9.426718    2.423890     11.00     196.9666
      94     1 Au  79   16.327555    9.426718    2.423890     11.00     196.9666
      95     1 Au  79   19.296202    9.426718    2.423890     11.00     196.9666
      96     1 Au  79   22.264848    9.426718    2.423890     11.00     196.9666
      97     1 Au  79    0.000000   11.997642    2.423890     11.00     196.9666
      98     1 Au  79    2.968646   11.997642    2.423890     11.00     196.9666
      99     1 Au  79    5.937293   11.997642    2.423890     11.00     196.9666
     100     1 Au  79    8.905939   11.997642    2.423890     11.00     196.9666
     101     1 Au  79   11.874586   11.997642    2.423890     11.00     196.9666
     102     1 Au  79   14.843232   11.997642    2.423890     11.00     196.9666
     103     1 Au  79   17.811878   11.997642    2.423890     11.00     196.9666
     104     1 Au  79   20.780525   11.997642    2.423890     11.00     196.9666
     105     1 Au  79    1.484323   14.568565    2.423890     11.00     196.9666
     106     1 Au  79    4.452970   14.568565    2.423890     11.00     196.9666
     107     1 Au  79    7.421616   14.568565    2.423890     11.00     196.9666
     108     1 Au  79   10.390262   14.568565    2.423890     11.00     196.9666
     109     1 Au  79   13.358909   14.568565    2.423890     11.00     196.9666
     110     1 Au  79   16.327555   14.568565    2.423890     11.00     196.9666
     111     1 Au  79   19.296202   14.568565    2.423890     11.00     196.9666
     112     1 Au  79   22.264848   14.568565    2.423890     11.00     196.9666
     113     1 Au  79    0.000000   17.139488    2.423890     11.00     196.9666
     114     1 Au  79    2.968646   17.139488    2.423890     11.00     196.9666
     115     1 Au  79    5.937293   17.139488    2.423890     11.00     196.9666
     116     1 Au  79    8.905939   17.139488    2.423890     11.00     196.9666
     117     1 Au  79   11.874586   17.139488    2.423890     11.00     196.9666
     118     1 Au  79   14.843232   17.139488    2.423890     11.00     196.9666
     119     1 Au  79   17.811878   17.139488    2.423890     11.00     196.9666
     120     1 Au  79   20.780525   17.139488    2.423890     11.00     196.9666
     121     1 Au  79    1.484323   19.710411    2.423890     11.00     196.9666
     122     1 Au  79    4.452970   19.710411    2.423890     11.00     196.9666
     123     1 Au  79    7.421616   19.710411    2.423890     11.00     196.9666
     124     1 Au  79   10.390262   19.710411    2.423890     11.00     196.9666
     125     1 Au  79   13.358909   19.710411    2.423890     11.00     196.9666
     126     1 Au  79   16.327555   19.710411    2.423890     11.00     196.9666
     127     1 Au  79   19.296202   19.710411    2.423890     11.00     196.9666
     128     1 Au  79   22.264848   19.710411    2.423890     11.00     196.9666
     129     1 Au  79    0.000000    0.000000    4.847779     11.00     196.9666
     130     1 Au  79    2.968646    0.000000    4.847779     11.00     196.9666
     131     1 Au  79    5.937293    0.000000    4.847779     11.00     196.9666
     132     1 Au  79    8.905939    0.000000    4.847779     11.00     196.9666
     133     1 Au  79   11.874586    0.000000    4.847779     11.00     196.9666
     134     1 Au  79   14.843232    0.000000    4.847779     11.00     196.9666
     135     1 Au  79   17.811878    0.000000    4.847779     11.00     196.9666
     136     1 Au  79   20.780525    0.000000    4.847779     11.00     196.9666
     137     1 Au  79    1.484323    2.570923    4.847779     11.00     196.9666
     138     1 Au  79    4.452970    2.570923    4.847779     11.00     196.9666
     139     1 Au  79    7.421616    2.570923    4.847779     11.00     196.9666
     140     1 Au  79   10.390262    2.570923    4.847779     11.00     196.9666
     141     1 Au  79   13.358909    2.570923    4.847779     11.00     196.9666
     142     1 Au  79   16.327555    2.570923    4.847779     11.00     196.9666
     143     1 Au  79   19.296202    2.570923    4.847779     11.00     196.9666
     144     1 Au  79   22.264848    2.570923    4.847779     11.00     196.9666
     145     1 Au  79    0.000000    5.141846    4.847779     11.00     196.9666
     146     1 Au  79    2.968646    5.141846    4.847779     11.00     196.9666
     147     1 Au  79    5.937293    5.141846    4.847779     11.00     196.9666
     148     1 Au  79    8.905939    5.141846    4.847779     11.00     196.9666
     149     1 Au  79   11.874586    5.141846    4.847779     11.00     196.9666
     150     1 Au  79   14.843232    5.141846    4.847779     11.00     196.9666
     151     1 Au  79   17.811878    5.141846    4.847779     11.00     196.9666
     152     1 Au  79   20.780525    5.141846    4.847779     11.00     196.9666
     153     1 Au  79    1.484323    7.712770    4.847779     11.00     196.9666
     154     1 Au  79    4.452970    7.712770    4.847779     11.00     196.9666
     155     1 Au  79    7.421616    7.712770    4.847779     11.00     196.9666
     156     1 Au  79   10.390262    7.712770    4.847779     11.00     196.9666
     157     1 Au  79   13.358909    7.712770    4.847779     11.00     196.9666
     158     1 Au  79   16.327555    7.712770    4.847779     11.00     196.9666
     159     1 Au  79   19.296202    7.712770    4.847779     11.00     196.9666
     160     1 Au  79   22.264848    7.712770    4.847779     11.00     196.9666
     161     1 Au  79    0.000000   10.283693    4.847779     11.00     196.9666
     162     1 Au  79    2.968646   10.283693    4.847779     11.00     196.9666
     163     1 Au  79    5.937293   10.283693    4.847779     11.00     196.9666
     164     1 Au  79    8.905939   10.283693    4.847779     11.00     196.9666
     165     1 Au  79   11.874586   10.283693    4.847779     11.00     196.9666
     166     1 Au  79   14.843232   10.283693    4.847779     11.00     196.9666
     167     1 Au  79   17.811878   10.283693    4.847779     11.00     196.9666
     168     1 Au  79   20.780525   10.283693    4.847779     11.00     196.9666
     169     1 Au  79    1.484323   12.854616    4.847779     11.00     196.9666
     170     1 Au  79    4.452970   12.854616    4.847779     11.00     196.9666
     171     1 Au  79    7.421616   12.854616    4.847779     11.00     196.9666
     172     1 Au  79   10.390262   12.854616    4.847779     11.00     196.9666
     173     1 Au  79   13.358909   12.854616    4.847779     11.00     196.9666
     174     1 Au  79   16.327555   12.854616    4.847779     11.00     196.9666
     175     1 Au  79   19.296202   12.854616    4.847779     11.00     196.9666
     176     1 Au  79   22.264848   12.854616    4.847779     11.00     196.9666
     177     1 Au  79    0.000000   15.425539    4.847779     11.00     196.9666
     178     1 Au  79    2.968646   15.425539    4.847779     11.00     196.9666
     179     1 Au  79    5.937293   15.425539    4.847779     11.00     196.9666
     180     1 Au  79    8.905939   15.425539    4.847779     11.00     196.9666
     181     1 Au  79   11.874586   15.425539    4.847779     11.00     196.9666
     182     1 Au  79   14.843232   15.425539    4.847779     11.00     196.9666
     183     1 Au  79   17.811878   15.425539    4.847779     11.00     196.9666
     184     1 Au  79   20.780525   15.425539    4.847779     11.00     196.9666
     185     1 Au  79    1.484323   17.996462    4.847779     11.00     196.9666
     186     1 Au  79    4.452970   17.996462    4.847779     11.00     196.9666
     187     1 Au  79    7.421616   17.996462    4.847779     11.00     196.9666
     188     1 Au  79   10.390262   17.996462    4.847779     11.00     196.9666
     189     1 Au  79   13.358909   17.996462    4.847779     11.00     196.9666
     190     1 Au  79   16.327555   17.996462    4.847779     11.00     196.9666
     191     1 Au  79   19.296202   17.996462    4.847779     11.00     196.9666
     192     1 Au  79   22.264848   17.996462    4.847779     11.00     196.9666
     193     1 Au  79    8.905939    8.569744    7.271669     11.00     196.9666
     194     1 Au  79   11.874586    8.569744    7.271669     11.00     196.9666
     195     1 Au  79   10.390262   11.140667    7.271669     11.00     196.9666
     196     1 Au  79   10.390262    9.426718    9.695559     11.00     196.9666
     197     1 Au  79   10.390262    9.426718   12.119448     11.00     196.9666
     198     1 Au  79   10.390262    9.426718   14.543338     11.00     196.9666
     199     1 Au  79   10.390262    9.426718   16.967227     11.00     196.9666
     200     1 Au  79   10.390262    9.426718   19.391117     11.00     196.9666
     201     1 Au  79   10.390262    9.426718   21.815007     11.00     196.9666
     202     1 Au  79   10.390262    7.712770   24.238896     11.00     196.9666
     203     1 Au  79    8.905939   10.283693   24.238896     11.00     196.9666
     204     1 Au  79   11.874586   10.283693   24.238896     11.00     196.9666
     205     1 Au  79    0.000000    1.713949   26.662786     11.00     196.9666
     206     1 Au  79    2.968646    1.713949   26.662786     11.00     196.9666
     207     1 Au  79    5.937293    1.713949   26.662786     11.00     196.9666
     208     1 Au  79    8.905939    1.713949   26.662786     11.00     196.9666
     209     1 Au  79   11.874586    1.713949   26.662786     11.00     196.9666
     210     1 Au  79   14.843232    1.713949   26.662786     11.00     196.9666
     211     1 Au  79   17.811878    1.713949   26.662786     11.00     196.9666
     212     1 Au  79   20.780525    1.713949   26.662786     11.00     196.9666
     213     1 Au  79    1.484323    4.284872   26.662786     11.00     196.9666
     214     1 Au  79    4.452970    4.284872   26.662786     11.00     196.9666
     215     1 Au  79    7.421616    4.284872   26.662786     11.00     196.9666
     216     1 Au  79   10.390262    4.284872   26.662786     11.00     196.9666
     217     1 Au  79   13.358909    4.284872   26.662786     11.00     196.9666
     218     1 Au  79   16.327555    4.284872   26.662786     11.00     196.9666
     219     1 Au  79   19.296202    4.284872   26.662786     11.00     196.9666
     220     1 Au  79   22.264848    4.284872   26.662786     11.00     196.9666
     221     1 Au  79    0.000000    6.855795   26.662786     11.00     196.9666
     222     1 Au  79    2.968646    6.855795   26.662786     11.00     196.9666
     223     1 Au  79    5.937293    6.855795   26.662786     11.00     196.9666
     224     1 Au  79    8.905939    6.855795   26.662786     11.00     196.9666
     225     1 Au  79   11.874586    6.855795   26.662786     11.00     196.9666
     226     1 Au  79   14.843232    6.855795   26.662786     11.00     196.9666
     227     1 Au  79   17.811878    6.855795   26.662786     11.00     196.9666
     228     1 Au  79   20.780525    6.855795   26.662786     11.00     196.9666
     229     1 Au  79    1.484323    9.426718   26.662786     11.00     196.9666
     230     1 Au  79    4.452970    9.426718   26.662786     11.00     196.9666
     231     1 Au  79    7.421616    9.426718   26.662786     11.00     196.9666
     232     1 Au  79   10.390262    9.426718   26.662786     11.00     196.9666
     233     1 Au  79   13.358909    9.426718   26.662786     11.00     196.9666
     234     1 Au  79   16.327555    9.426718   26.662786     11.00     196.9666
     235     1 Au  79   19.296202    9.426718   26.662786     11.00     196.9666
     236     1 Au  79   22.264848    9.426718   26.662786     11.00     196.9666
     237     1 Au  79    0.000000   11.997642   26.662786     11.00     196.9666
     238     1 Au  79    2.968646   11.997642   26.662786     11.00     196.9666
     239     1 Au  79    5.937293   11.997642   26.662786     11.00     196.9666
     240     1 Au  79    8.905939   11.997642   26.662786     11.00     196.9666
     241     1 Au  79   11.874586   11.997642   26.662786     11.00     196.9666
     242     1 Au  79   14.843232   11.997642   26.662786     11.00     196.9666
     243     1 Au  79   17.811878   11.997642   26.662786     11.00     196.9666
     244     1 Au  79   20.780525   11.997642   26.662786     11.00     196.9666
     245     1 Au  79    1.484323   14.568565   26.662786     11.00     196.9666
     246     1 Au  79    4.452970   14.568565   26.662786     11.00     196.9666
     247     1 Au  79    7.421616   14.568565   26.662786     11.00     196.9666
     248     1 Au  79   10.390262   14.568565   26.662786     11.00     196.9666
     249     1 Au  79   13.358909   14.568565   26.662786     11.00     196.9666
     250     1 Au  79   16.327555   14.568565   26.662786     11.00     196.9666
     251     1 Au  79   19.296202   14.568565   26.662786     11.00     196.9666
     252     1 Au  79   22.264848   14.568565   26.662786     11.00     196.9666
     253     1 Au  79    0.000000   17.139488   26.662786     11.00     196.9666
     254     1 Au  79    2.968646   17.139488   26.662786     11.00     196.9666
     255     1 Au  79    5.937293   17.139488   26.662786     11.00     196.9666
     256     1 Au  79    8.905939   17.139488   26.662786     11.00     196.9666
     257     1 Au  79   11.874586   17.139488   26.662786     11.00     196.9666
     258     1 Au  79   14.843232   17.139488   26.662786     11.00     196.9666
     259     1 Au  79   17.811878   17.139488   26.662786     11.00     196.9666
     260     1 Au  79   20.780525   17.139488   26.662786     11.00     196.9666
     261     1 Au  79    1.484323   19.710411   26.662786     11.00     196.9666
     262     1 Au  79    4.452970   19.710411   26.662786     11.00     196.9666
     263     1 Au  79    7.421616   19.710411   26.662786     11.00     196.9666
     264     1 Au  79   10.390262   19.710411   26.662786     11.00     196.9666
     265     1 Au  79   13.358909   19.710411   26.662786     11.00     196.9666
     266     1 Au  79   16.327555   19.710411   26.662786     11.00     196.9666
     267     1 Au  79   19.296202   19.710411   26.662786     11.00     196.9666
     268     1 Au  79   22.264848   19.710411   26.662786     11.00     196.9666
     269     1 Au  79    0.000000    0.000000   29.086676     11.00     196.9666
     270     1 Au  79    2.968646    0.000000   29.086676     11.00     196.9666
     271     1 Au  79    5.937293    0.000000   29.086676     11.00     196.9666
     272     1 Au  79    8.905939    0.000000   29.086676     11.00     196.9666
     273     1 Au  79   11.874586    0.000000   29.086676     11.00     196.9666
     274     1 Au  79   14.843232    0.000000   29.086676     11.00     196.9666
     275     1 Au  79   17.811878    0.000000   29.086676     11.00     196.9666
     276     1 Au  79   20.780525    0.000000   29.086676     11.00     196.9666
     277     1 Au  79    1.484323    2.570923   29.086676     11.00     196.9666
     278     1 Au  79    4.452970    2.570923   29.086676     11.00     196.9666
     279     1 Au  79    7.421616    2.570923   29.086676     11.00     196.9666
     280     1 Au  79   10.390262    2.570923   29.086676     11.00     196.9666
     281     1 Au  79   13.358909    2.570923   29.086676     11.00     196.9666
     282     1 Au  79   16.327555    2.570923   29.086676     11.00     196.9666
     283     1 Au  79   19.296202    2.570923   29.086676     11.00     196.9666
     284     1 Au  79   22.264848    2.570923   29.086676     11.00     196.9666
     285     1 Au  79    0.000000    5.141846   29.086676     11.00     196.9666
     286     1 Au  79    2.968646    5.141846   29.086676     11.00     196.9666
     287     1 Au  79    5.937293    5.141846   29.086676     11.00     196.9666
     288     1 Au  79    8.905939    5.141846   29.086676     11.00     196.9666
     289     1 Au  79   11.874586    5.141846   29.086676     11.00     196.9666
     290     1 Au  79   14.843232    5.141846   29.086676     11.00     196.9666
     291     1 Au  79   17.811878    5.141846   29.086676     11.00     196.9666
     292     1 Au  79   20.780525    5.141846   29.086676     11.00     196.9666
     293     1 Au  79    1.484323    7.712770   29.086676     11.00     196.9666
     294     1 Au  79    4.452970    7.712770   29.086676     11.00     196.9666
     295     1 Au  79    7.421616    7.712770   29.086676     11.00     196.9666
     296     1 Au  79   10.390262    7.712770   29.086676     11.00     196.9666
     297     1 Au  79   13.358909    7.712770   29.086676     11.00     196.9666
     298     1 Au  79   16.327555    7.712770   29.086676     11.00     196.9666
     299     1 Au  79   19.296202    7.712770   29.086676     11.00     196.9666
     300     1 Au  79   22.264848    7.712770   29.086676     11.00     196.9666
     301     1 Au  79    0.000000   10.283693   29.086676     11.00     196.9666
     302     1 Au  79    2.968646   10.283693   29.086676     11.00     196.9666
     303     1 Au  79    5.937293   10.283693   29.086676     11.00     196.9666
     304     1 Au  79    8.905939   10.283693   29.086676     11.00     196.9666
     305     1 Au  79   11.874586   10.283693   29.086676     11.00     196.9666
     306     1 Au  79   14.843232   10.283693   29.086676     11.00     196.9666
     307     1 Au  79   17.811878   10.283693   29.086676     11.00     196.9666
     308     1 Au  79   20.780525   10.283693   29.086676     11.00     196.9666
     309     1 Au  79    1.484323   12.854616   29.086676     11.00     196.9666
     310     1 Au  79    4.452970   12.854616   29.086676     11.00     196.9666
     311     1 Au  79    7.421616   12.854616   29.086676     11.00     196.9666
     312     1 Au  79   10.390262   12.854616   29.086676     11.00     196.9666
     313     1 Au  79   13.358909   12.854616   29.086676     11.00     196.9666
     314     1 Au  79   16.327555   12.854616   29.086676     11.00     196.9666
     315     1 Au  79   19.296202   12.854616   29.086676     11.00     196.9666
     316     1 Au  79   22.264848   12.854616   29.086676     11.00     196.9666
     317     1 Au  79    0.000000   15.425539   29.086676     11.00     196.9666
     318     1 Au  79    2.968646   15.425539   29.086676     11.00     196.9666
     319     1 Au  79    5.937293   15.425539   29.086676     11.00     196.9666
     320     1 Au  79    8.905939   15.425539   29.086676     11.00     196.9666
     321     1 Au  79   11.874586   15.425539   29.086676     11.00     196.9666
     322     1 Au  79   14.843232   15.425539   29.086676     11.00     196.9666
     323     1 Au  79   17.811878   15.425539   29.086676     11.00     196.9666
     324     1 Au  79   20.780525   15.425539   29.086676     11.00     196.9666
     325     1 Au  79    1.484323   17.996462   29.086676     11.00     196.9666
     326     1 Au  79    4.452970   17.996462   29.086676     11.00     196.9666
     327     1 Au  79    7.421616   17.996462   29.086676     11.00     196.9666
     328     1 Au  79   10.390262   17.996462   29.086676     11.00     196.9666
     329     1 Au  79   13.358909   17.996462   29.086676     11.00     196.9666
     330     1 Au  79   16.327555   17.996462   29.086676     11.00     196.9666
     331     1 Au  79   19.296202   17.996462   29.086676     11.00     196.9666
     332     1 Au  79   22.264848   17.996462   29.086676     11.00     196.9666




 SCF PARAMETERS         Density guess:                                    ATOMIC
                        --------------------------------------------------------
                        max_scf:                                             500
                        max_scf_history:                                       0
                        max_diis:                                              4
                        --------------------------------------------------------
                        eps_scf:                                        1.00E-07
                        eps_scf_history:                                0.00E+00
                        eps_diis:                                       1.00E-01
                        eps_eigval:                                     1.00E-05
                        --------------------------------------------------------
                        level_shift [a.u.]:                                 0.00
                        added MOs                                        20    0
                        --------------------------------------------------------
                        Mixing method:                            BROYDEN_MIXING
                                                charge density mixing in g-space
                        --------------------------------------------------------
                        Smear method:                                FERMI_DIRAC
                        Electronic temperature [K]:                        300.0
                        Electronic temperature [a.u.]:                  9.50E-04
                        Accuracy threshold:                             1.00E-10
                        --------------------------------------------------------
                        No outer SCF

 PW_GRID| Information for grid number                                          1
 PW_GRID| Grid distributed over                                   100 processors
 PW_GRID| Real space group dimensions                                   100    1
 PW_GRID| the grid is blocked:                                                NO
 PW_GRID| Cutoff [a.u.]                                                    250.0
 PW_GRID| spherical cutoff:                                                   NO
 PW_GRID|   Bounds   1           -160     159                Points:         320
 PW_GRID|   Bounds   2           -144     143                Points:         288
 PW_GRID|   Bounds   3           -216     215                Points:         432
 PW_GRID| Volume element (a.u.^3)  0.2609E-02     Volume (a.u.^3)    103867.6602
 PW_GRID| Grid span                                                    FULLSPACE
 PW_GRID|   Distribution                         Average         Max         Min
 PW_GRID|   G-Vectors                           398131.2      398400      398080
 PW_GRID|   G-Rays                                1244.2        1245        1244
 PW_GRID|   Real Space Points                   398131.2      497664      373248

 PW_GRID| Information for grid number                                          2
 PW_GRID| Grid distributed over                                   100 processors
 PW_GRID| Real space group dimensions                                   100    1
 PW_GRID| the grid is blocked:                                                NO
 PW_GRID| Cutoff [a.u.]                                                     83.3
 PW_GRID| spherical cutoff:                                                   NO
 PW_GRID|   Bounds   1            -96      95                Points:         192
 PW_GRID|   Bounds   2            -80      79                Points:         160
 PW_GRID|   Bounds   3           -128     127                Points:         256
 PW_GRID| Volume element (a.u.^3)  0.1321E-01     Volume (a.u.^3)    103867.6602
 PW_GRID| Grid span                                                    FULLSPACE
 PW_GRID|   Distribution                         Average         Max         Min
 PW_GRID|   G-Vectors                            78643.2       80832       75456
 PW_GRID|   G-Rays                                 409.6         421         393
 PW_GRID|   Real Space Points                    78643.2       81920       40960

 PW_GRID| Information for grid number                                          3
 PW_GRID| Grid distributed over                                   100 processors
 PW_GRID| Real space group dimensions                                   100    1
 PW_GRID| the grid is blocked:                                                NO
 PW_GRID| Cutoff [a.u.]                                                     27.8
 PW_GRID| spherical cutoff:                                                   NO
 PW_GRID|   Bounds   1            -54      53                Points:         108
 PW_GRID|   Bounds   2            -48      47                Points:          96
 PW_GRID|   Bounds   3            -72      71                Points:         144
 PW_GRID| Volume element (a.u.^3)  0.6957E-01     Volume (a.u.^3)    103867.6602
 PW_GRID| Grid span                                                    FULLSPACE
 PW_GRID|   Distribution                         Average         Max         Min
 PW_GRID|   G-Vectors                            14929.9       15552       14364
 PW_GRID|   G-Rays                                 138.2         144         133
 PW_GRID|   Real Space Points                    14929.9       27648       13824

 PW_GRID| Information for grid number                                          4
 PW_GRID| Grid distributed over                                   100 processors
 PW_GRID| Real space group dimensions                                    10   10
 PW_GRID| the grid is blocked:                                                NO
 PW_GRID| Cutoff [a.u.]                                                      9.3
 PW_GRID| spherical cutoff:                                                   NO
 PW_GRID|   Bounds   1            -32      31                Points:          64
 PW_GRID|   Bounds   2            -27      26                Points:          54
 PW_GRID|   Bounds   3            -40      40                Points:          81
 PW_GRID| Volume element (a.u.^3)  0.3710         Volume (a.u.^3)    103867.6602
 PW_GRID| Grid span                                                    FULLSPACE
 PW_GRID|   Distribution                         Average         Max         Min
 PW_GRID|   G-Vectors                             2799.4        3136        2560
 PW_GRID|   G-Rays                                  43.7          49          40
 PW_GRID|   Real Space Points                     2799.4        3402        2430

 POISSON| Solver                                                        PERIODIC
 POISSON| Periodicity                                                        XYZ

 RS_GRID| Information for grid number                                          1
 RS_GRID|   Bounds   1           -160     159                Points:         320
 RS_GRID|   Bounds   2           -144     143                Points:         288
 RS_GRID|   Bounds   3           -216     215                Points:         432
 RS_GRID| Real space distribution over                                  5 groups
 RS_GRID| Real space distribution along direction                              1
 RS_GRID| Border size                                                         39
 RS_GRID| Real space distribution over                                  4 groups
 RS_GRID| Real space distribution along direction                              2
 RS_GRID| Border size                                                         39
 RS_GRID| Real space distribution over                                  5 groups
 RS_GRID| Real space distribution along direction                              3
 RS_GRID| Border size                                                         39
 RS_GRID|   Distribution                         Average         Max         Min
 RS_GRID|   Planes                                 142.0         142         142
 RS_GRID|   Distribution                         Average         Max         Min
 RS_GRID|   Planes                                 150.0         150         150
 RS_GRID|   Distribution                         Average         Max         Min
 RS_GRID|   Planes                                 164.4         165         164

 RS_GRID| Information for grid number                                          2
 RS_GRID|   Bounds   1            -96      95                Points:         192
 RS_GRID|   Bounds   2            -80      79                Points:         160
 RS_GRID|   Bounds   3           -128     127                Points:         256
 RS_GRID| Real space distribution over                                  5 groups
 RS_GRID| Real space distribution along direction                              1
 RS_GRID| Border size                                                         24
 RS_GRID| Real space distribution over                                  4 groups
 RS_GRID| Real space distribution along direction                              2
 RS_GRID| Border size                                                         24
 RS_GRID| Real space distribution over                                  5 groups
 RS_GRID| Real space distribution along direction                              3
 RS_GRID| Border size                                                         24
 RS_GRID|   Distribution                         Average         Max         Min
 RS_GRID|   Planes                                  86.4          87          86
 RS_GRID|   Distribution                         Average         Max         Min
 RS_GRID|   Planes                                  88.0          88          88
 RS_GRID|   Distribution                         Average         Max         Min
 RS_GRID|   Planes                                  99.2         100          99

 RS_GRID| Information for grid number                                          3
 RS_GRID|   Bounds   1            -54      53                Points:         108
 RS_GRID|   Bounds   2            -48      47                Points:          96
 RS_GRID|   Bounds   3            -72      71                Points:         144
 RS_GRID| Real space fully replicated
 RS_GRID| Group size                                                           1

 RS_GRID| Information for grid number                                          4
 RS_GRID|   Bounds   1            -32      31                Points:          64
 RS_GRID|   Bounds   2            -27      26                Points:          54
 RS_GRID|   Bounds   3            -40      40                Points:          81
 RS_GRID| Real space fully replicated
 RS_GRID| Group size                                                           1
 
 KPOINTS| Number of kpoint groups                                              1
 KPOINTS| Size of each kpoint group                                          100
 KPOINTS| Number of kpoints per group                                          9

 Number of electrons:                                                       3652
 Number of occupied orbitals:                                               1826
 Number of molecular orbitals:                                              1846

 Number of orbital functions:                                              11288
 Number of independent orbital functions:                                  11288

 Extrapolation method: initial_guess

 Atomic guess: The first density matrix is obtained in terms of atomic orbitals
               and electronic configurations assigned to each atomic kind

 Guess for atomic kind: Au

 Electronic structure
    Total number of core electrons                                         68.00
    Total number of valence electrons                                      11.00
    Total number of electrons                                              79.00
    Multiplicity                                                   not specified
    S   [  2.00  2.00  2.00  2.00  2.00] 1.00
    P   [  6.00  6.00  6.00  6.00]
    D   [ 10.00 10.00]10.00
    F   [ 14.00]
 

 *******************************************************************************
                  Iteration          Convergence                     Energy [au]
 *******************************************************************************
                          1         4.82062                     -29.858923021251
                          2         9.74282                     -21.505180762611
                          3        0.668139                     -32.871344772047
                          4        0.275835                     -32.923503906735
                          5        0.117591                     -32.928907950392
                          6        0.284438E-02                 -32.930060747725
                          7        0.102403E-03                 -32.930061417487
                          8        0.256606E-07                 -32.930061418346

 Energy components [Hartree]           Total Energy ::          -32.930061418346
                                        Band Energy ::           -2.476378331586
                                     Kinetic Energy ::           24.393681946408
                                   Potential Energy ::          -57.323743364755
                                      Virial (-V/T) ::            2.349942230562
                                        Core Energy ::          -59.878567251407
                                          XC Energy ::           -5.077084241289
                                     Coulomb Energy ::           32.025590074350
                       Total Pseudopotential Energy ::          -84.375612584754
                       Local Pseudopotential Energy ::          -67.274282149935
                    Nonlocal Pseudopotential Energy ::          -17.101330434819
                                        Confinement ::            1.033633869382

 Orbital energies  State     L     Occupation   Energy[a.u.]          Energy[eV]

                       1     0          1.000      -0.187957           -5.114562
 
                       1     2         10.000      -0.228842           -6.227112
 

 Total Electron Density at R=0:                                         0.000023
 Re-scaling the density matrix to get the right number of electrons
                  # Electrons              Trace(P)               Scaling factor
                         3652              3652.000                        1.000


 SCF WAVEFUNCTION OPTIMIZATION

  Step     Update method      Time    Convergence         Total energy    Change
  ------------------------------------------------------------------------------
     1 NoMix/Diag. 0.40E+00 1110.4     0.27220871    -11040.9151134589 -1.10E+04
     2 Broy./Diag. 0.40E+00 1099.7     0.10210233    -11236.3871803213 -1.95E+02
     3 Broy./Diag. 0.40E+00 1111.0     0.03008718    -11068.2022856085  1.68E+02
     4 Broy./Diag. 0.40E+00 1107.8     0.02214588    -11039.8392511427  2.84E+01
     5 Broy./Diag. 0.40E+00 1103.7     0.01405027    -11039.0814754258  7.58E-01
     6 Broy./Diag. 0.40E+00 1085.8     0.00449208    -11038.3441900239  7.37E-01
     7 Broy./Diag. 0.40E+00 1084.7     0.00211326    -11038.7847253356 -4.41E-01
     8 Broy./Diag. 0.40E+00 1096.4     0.00432953    -11038.7384091309  4.63E-02
     9 Broy./Diag. 0.40E+00 1116.7     0.00394136    -11038.5573791068  1.81E-01
    10 Broy./Diag. 0.40E+00 1125.9     0.00305893    -11038.3620407726  1.95E-01
    11 Broy./Diag. 0.40E+00 1099.8     0.00196130    -11038.2577125926  1.04E-01
    12 Broy./Diag. 0.40E+00 1098.1     0.00041564    -11038.2305758284  2.71E-02
    13 Broy./Diag. 0.40E+00 1122.3     0.00032309    -11038.2267947042  3.78E-03
    14 Broy./Diag. 0.40E+00 1100.4     0.00049965    -11038.1978301439  2.90E-02
    15 Broy./Diag. 0.40E+00 1116.4     0.00023776    -11038.1959522857  1.88E-03
    16 Broy./Diag. 0.40E+00 1090.6     0.00020124    -11038.1899543379  6.00E-03
    17 Broy./Diag. 0.40E+00 1091.6     0.00009762    -11038.1950616399 -5.11E-03
    18 Broy./Diag. 0.40E+00 1142.4     0.00006969    -11038.1965626803 -1.50E-03
    19 Broy./Diag. 0.40E+00 1144.6     0.00007758    -11038.1914005575  5.16E-03
    20 Broy./Diag. 0.40E+00 1102.6     0.00009259    -11038.1891065313  2.29E-03
    21 Broy./Diag. 0.40E+00  842.9     0.00002680    -11038.1881437209  9.63E-04
    22 Broy./Diag. 0.40E+00  941.5     0.00004537    -11038.1883986866 -2.55E-04
    23 Broy./Diag. 0.40E+00 1497.1     0.00000943    -11038.1894728726 -1.07E-03
    24 Broy./Diag. 0.40E+00 1606.6     0.00000717    -11038.1886305703  8.42E-04
    25 Broy./Diag. 0.40E+00 1681.5     0.00002179    -11038.1875703628  1.06E-03
    26 Broy./Diag. 0.40E+00 1624.8     0.00001285    -11038.1868018793  7.68E-04
    27 Broy./Diag. 0.40E+00 1559.2     0.00001132    -11038.1868324576 -3.06E-05
    28 Broy./Diag. 0.40E+00 1555.1     0.00000339    -11038.1869020267 -6.96E-05
    29 Broy./Diag. 0.40E+00 1557.9     0.00000536    -11038.1869496492 -4.76E-05
    30 Broy./Diag. 0.40E+00 1557.4     0.00000441    -11038.1868626294  8.70E-05
    31 Broy./Diag. 0.40E+00 1552.3     0.00000319    -11038.1867826004  8.00E-05
    32 Broy./Diag. 0.40E+00 1560.9     0.00000246    -11038.1867723476  1.03E-05
    33 Broy./Diag. 0.40E+00 1562.9     0.00000137    -11038.1867491658  2.32E-05
    34 Broy./Diag. 0.40E+00 1574.5     0.00000081    -11038.1867510174 -1.85E-06
    35 Broy./Diag. 0.40E+00 1577.3     0.00000113    -11038.1867434472  7.57E-06
    36 Broy./Diag. 0.40E+00 1581.1     0.00000041    -11038.1867396928  3.75E-06
    37 Broy./Diag. 0.40E+00 1579.8     0.00000074    -11038.1867411361 -1.44E-06
    38 Broy./Diag. 0.40E+00 1567.4     0.00000051    -11038.1867321062  9.03E-06
    39 Broy./Diag. 0.40E+00 1565.8     0.00000036    -11038.1867194132  1.27E-05
    40 Broy./Diag. 0.40E+00 1564.3     0.00000008    -11038.1867086142  1.08E-05

  *** SCF run converged in    40 steps ***


  Electronic density on regular grids:      -3652.0000000029       -0.0000000029
  Core density on regular grids:             3651.9999999999       -0.0000000001
  Total charge density on r-space grids:       -0.0000000030
  Total charge density g-space grids:          -0.0000000030

  Overlap energy of the core charge distribution:               0.00000599240516
  Self energy of the core charge distribution:             -19207.30843244107746
  Core Hamiltonian energy:                                   6122.44820236098622
[...]
    193       Au     1      11.000         10.995                         0.005
    194       Au     1      11.000         10.995                         0.005
    195       Au     1      11.000         10.995                         0.005
    196       Au     1      11.000         11.030                        -0.030
    197       Au     1      11.000         11.087                        -0.087
    198       Au     1      11.000         11.052                        -0.052
    199       Au     1      11.000         11.050                        -0.050
    200       Au     1      11.000         11.088                        -0.088
    201       Au     1      11.000         11.030                        -0.030
    202       Au     1      11.000         10.997                         0.003
    203       Au     1      11.000         10.998                         0.002
    204       Au     1      11.000         10.998                         0.002
    205       Au     1      11.000         11.014                        -0.014
    206       Au     1      11.000         11.013                        -0.013
    207       Au     1      11.000         11.012                        -0.012
    208       Au     1      11.000         11.012                        -0.012
    209       Au     1      11.000         11.012                        -0.012
    210       Au     1      11.000         11.012                        -0.012
    211       Au     1      11.000         11.013                        -0.013
    212       Au     1      11.000         11.014                        -0.014
    213       Au     1      11.000         11.012                        -0.012
    214       Au     1      11.000         11.013                        -0.013
    215       Au     1      11.000         11.012                        -0.012
    216       Au     1      11.000         11.012                        -0.012
    217       Au     1      11.000         11.012                        -0.012
    218       Au     1      11.000         11.013                        -0.013
    219       Au     1      11.000         11.012                        -0.012
    220       Au     1      11.000         11.014                        -0.014
    221       Au     1      11.000         11.013                        -0.013
    222       Au     1      11.000         11.014                        -0.014
    223       Au     1      11.000         11.011                        -0.011
    224       Au     1      11.000         11.005                        -0.005
    225       Au     1      11.000         11.005                        -0.005
    226       Au     1      11.000         11.011                        -0.011
    227       Au     1      11.000         11.014                        -0.014
    228       Au     1      11.000         11.013                        -0.013
    229       Au     1      11.000         11.013                        -0.013
    230       Au     1      11.000         11.012                        -0.012
    231       Au     1      11.000         11.005                        -0.005
    232       Au     1      11.000         10.971                         0.029
    233       Au     1      11.000         11.005                        -0.005
    234       Au     1      11.000         11.012                        -0.012
    235       Au     1      11.000         11.013                        -0.013
    236       Au     1      11.000         11.014                        -0.014
    237       Au     1      11.000         11.014                        -0.014
    238       Au     1      11.000         11.012                        -0.012
    239       Au     1      11.000         11.012                        -0.012
    240       Au     1      11.000         11.005                        -0.005
    241       Au     1      11.000         11.005                        -0.005
    242       Au     1      11.000         11.012                        -0.012
    243       Au     1      11.000         11.012                        -0.012
    244       Au     1      11.000         11.014                        -0.014
    245       Au     1      11.000         11.014                        -0.014
    246       Au     1      11.000         11.012                        -0.012
    247       Au     1      11.000         11.012                        -0.012
    248       Au     1      11.000         11.011                        -0.011
    249       Au     1      11.000         11.012                        -0.012
    250       Au     1      11.000         11.012                        -0.012
    251       Au     1      11.000         11.014                        -0.014
    252       Au     1      11.000         11.013                        -0.013
    253       Au     1      11.000         11.013                        -0.013
    254       Au     1      11.000         11.013                        -0.013
    255       Au     1      11.000         11.012                        -0.012
    256       Au     1      11.000         11.013                        -0.013
    257       Au     1      11.000         11.013                        -0.013
    258       Au     1      11.000         11.012                        -0.012
    259       Au     1      11.000         11.013                        -0.013
    260       Au     1      11.000         11.013                        -0.013
    261       Au     1      11.000         11.013                        -0.013
    262       Au     1      11.000         11.013                        -0.013
    263       Au     1      11.000         11.013                        -0.013
    264       Au     1      11.000         11.012                        -0.012
    265       Au     1      11.000         11.013                        -0.013
    266       Au     1      11.000         11.013                        -0.013
    267       Au     1      11.000         11.013                        -0.013
    268       Au     1      11.000         11.013                        -0.013
    269       Au     1      11.000         10.988                         0.012
    270       Au     1      11.000         10.988                         0.012
    271       Au     1      11.000         10.988                         0.012
    272       Au     1      11.000         10.988                         0.012
    273       Au     1      11.000         10.988                         0.012
    274       Au     1      11.000         10.988                         0.012
    275       Au     1      11.000         10.988                         0.012
    276       Au     1      11.000         10.988                         0.012
    277       Au     1      11.000         10.988                         0.012
    278       Au     1      11.000         10.988                         0.012
    279       Au     1      11.000         10.988                         0.012
    280       Au     1      11.000         10.988                         0.012
    281       Au     1      11.000         10.988                         0.012
    282       Au     1      11.000         10.988                         0.012
    283       Au     1      11.000         10.988                         0.012
    284       Au     1      11.000         10.988                         0.012
    285       Au     1      11.000         10.988                         0.012
    286       Au     1      11.000         10.987                         0.013
    287       Au     1      11.000         10.988                         0.012
    288       Au     1      11.000         10.990                         0.010
    289       Au     1      11.000         10.990                         0.010
    290       Au     1      11.000         10.988                         0.012
    291       Au     1      11.000         10.987                         0.013
    292       Au     1      11.000         10.988                         0.012
    293       Au     1      11.000         10.987                         0.013
    294       Au     1      11.000         10.988                         0.012
    295       Au     1      11.000         10.990                         0.010
    296       Au     1      11.000         10.993                         0.007
    297       Au     1      11.000         10.990                         0.010
    298       Au     1      11.000         10.988                         0.012
    299       Au     1      11.000         10.987                         0.013
    300       Au     1      11.000         10.988                         0.012
    301       Au     1      11.000         10.988                         0.012
    302       Au     1      11.000         10.987                         0.013
    303       Au     1      11.000         10.990                         0.010
    304       Au     1      11.000         10.993                         0.007
    305       Au     1      11.000         10.993                         0.007
    306       Au     1      11.000         10.990                         0.010
    307       Au     1      11.000         10.987                         0.013
    308       Au     1      11.000         10.988                         0.012
    309       Au     1      11.000         10.988                         0.012
    310       Au     1      11.000         10.987                         0.013
    311       Au     1      11.000         10.990                         0.010
    312       Au     1      11.000         10.989                         0.011
    313       Au     1      11.000         10.990                         0.010
    314       Au     1      11.000         10.987                         0.013
    315       Au     1      11.000         10.988                         0.012
    316       Au     1      11.000         10.987                         0.013
    317       Au     1      11.000         10.988                         0.012
    318       Au     1      11.000         10.988                         0.012
    319       Au     1      11.000         10.988                         0.012
    320       Au     1      11.000         10.988                         0.012
    321       Au     1      11.000         10.988                         0.012
    322       Au     1      11.000         10.988                         0.012
    323       Au     1      11.000         10.988                         0.012
    324       Au     1      11.000         10.988                         0.012
    325       Au     1      11.000         10.988                         0.012
    326       Au     1      11.000         10.988                         0.012
    327       Au     1      11.000         10.987                         0.013
    328       Au     1      11.000         10.987                         0.013
    329       Au     1      11.000         10.987                         0.013
    330       Au     1      11.000         10.988                         0.012
    331       Au     1      11.000         10.988                         0.012
    332       Au     1      11.000         10.988                         0.012

  Total Charge                                                            0.000
 !-----------------------------------------------------------------------------!

 ENERGY| Total FORCE_EVAL ( QS ) energy (a.u.):           -11038.174290494380330


 -------------------------------------------------------------------------------
 -                                                                             -
 -                                DBCSR STATISTICS                             -
 -                                                                             -
 -------------------------------------------------------------------------------
 COUNTER                                    TOTAL       BLAS       SMM       ACC
 flops inhomo. stacks                           0       0.0%      0.0%      0.0%
 flops total                         0.000000E+00       0.0%      0.0%      0.0%
 flops max/rank                      0.000000E+00       0.0%      0.0%      0.0%
 matmuls inhomo. stacks                         0       0.0%      0.0%      0.0%
 matmuls total                                  0       0.0%      0.0%      0.0%
 number of processed stacks                     0       0.0%      0.0%      0.0%
 average stack size                                     0.0       0.0       0.0
 marketing flops                     0.000000E+00
 -------------------------------------------------------------------------------
 
 MEMORY| Estimated peak process memory [MiB]                                3542

 -------------------------------------------------------------------------------
 ----                             MULTIGRID INFO                            ----
 -------------------------------------------------------------------------------
 count for grid        1:         124527          cutoff [a.u.]          250.00
 count for grid        2:         676605          cutoff [a.u.]           83.33
 count for grid        3:         379056          cutoff [a.u.]           27.78
 count for grid        4:         315771          cutoff [a.u.]            9.26
 total gridlevel count  :        1495959

 -------------------------------------------------------------------------------
 -                                                                             -
 -                         MESSAGE PASSING PERFORMANCE                         -
 -                                                                             -
 -------------------------------------------------------------------------------

 ROUTINE             CALLS      AVE VOLUME [Bytes]
 MP_Group             2612
 MP_Bcast            23133                  14126.
 MP_Allreduce         3279                   3606.
 MP_Sync                 4
 MP_Alltoall         53935                5316532.
 MP_ISendRecv        16038                 124200.
 MP_Wait             37308
 MP_ISend            22530                1918431.
 MP_IRecv            31170                1374636.
 MP_Recv             16054                2889728.
 MP_Write_All            1                 819072.
 -------------------------------------------------------------------------------


 -------------------------------------------------------------------------------
 -                                                                             -
 -                           R E F E R E N C E S                               -
 -                                                                             -
 -------------------------------------------------------------------------------
 
 CP2K version 6.1, the CP2K developers group (2018).
 CP2K is freely available from https://www.cp2k.org/ .

 Schuett, Ole; Messmer, Peter; Hutter, Juerg; VandeVondele, Joost. 
 Electronic Structure Calculations on Graphics Processing Units, John Wiley & Sons, Ltd, 173-190 (2016). 
 GPU-Accelerated Sparse Matrix-Matrix Multiplication for Linear Scaling Density Functional Theory.
 http://dx.doi.org/10.1002/9781118670712.ch8


 Borstnik, U; VandeVondele, J; Weber, V; Hutter, J. 
 PARALLEL COMPUTING, 40 (5-6), 47-58 (2014). 
 Sparse matrix multiplication: The distributed block-compressed sparse
 row library.
 http://dx.doi.org/10.1016/j.parco.2014.03.012


 Hutter, J; Iannuzzi, M; Schiffmann, F; VandeVondele, J. 
 WILEY INTERDISCIPLINARY REVIEWS-COMPUTATIONAL MOLECULAR SCIENCE, 4 (1), 15-25 (2014). 
 CP2K: atomistic simulations of condensed matter systems.
 http://dx.doi.org/10.1002/wcms.1159


 VandeVondele, J; Hutter, J. 
 JOURNAL OF CHEMICAL PHYSICS, 127 (11), 114105 (2007). 
 Gaussian basis sets for accurate calculations on molecular systems in
 gas and condensed phases.
 http://dx.doi.org/10.1063/1.2770708


 Krack, M. 
 THEORETICAL CHEMISTRY ACCOUNTS, 114 (1-3), 145-152 (2005). 
 Pseudopotentials for H to Kr optimized for gradient-corrected
 exchange-correlation functionals.
 http://dx.doi.org/10.1007/s00214-005-0655-y


 VandeVondele, J; Krack, M; Mohamed, F; Parrinello, M; Chassaing, T;
 Hutter, J. COMPUTER PHYSICS COMMUNICATIONS, 167 (2), 103-128 (2005). 
 QUICKSTEP: Fast and accurate density functional calculations using a
 mixed Gaussian and plane waves approach.
 http://dx.doi.org/10.1016/j.cpc.2004.12.014


 Frigo, M; Johnson, SG. 
 PROCEEDINGS OF THE IEEE, 93 (2), 216-231 (2005). 
 The design and implementation of FFTW3.
 http://dx.doi.org/10.1109/JPROC.2004.840301


 Hartwigsen, C; Goedecker, S; Hutter, J. 
 PHYSICAL REVIEW B, 58 (7), 3641-3662 (1998). 
 Relativistic separable dual-space Gaussian pseudopotentials from H to Rn.
 http://dx.doi.org/10.1103/PhysRevB.58.3641


 Lippert, G; Hutter, J; Parrinello, M. 
 MOLECULAR PHYSICS, 92 (3), 477-487 (1997). 
 A hybrid Gaussian and plane wave density functional scheme.
 http://dx.doi.org/10.1080/002689797170220


 Perdew, JP; Burke, K; Ernzerhof, M. 
 PHYSICAL REVIEW LETTERS, 77 (18), 3865-3868 (1996). 
 Generalized gradient approximation made simple.
 http://dx.doi.org/10.1103/PhysRevLett.77.3865


 Goedecker, S; Teter, M; Hutter, J. 
 PHYSICAL REVIEW B, 54 (3), 1703-1710 (1996). 
 Separable dual-space Gaussian pseudopotentials.
 http://dx.doi.org/10.1103/PhysRevB.54.1703


 -------------------------------------------------------------------------------
 -                                                                             -
 -                                T I M I N G                                  -
 -                                                                             -
 -------------------------------------------------------------------------------
 SUBROUTINE                       CALLS  ASD         SELF TIME        TOTAL TIME
                                MAXIMUM       AVERAGE  MAXIMUM  AVERAGE  MAXIMUM
 CP2K                                 1  1.0     0.04     0.07 68929.07 68929.08
 qs_energies                          1  2.0     0.06     0.14 68925.36 68925.36
 scf_env_do_scf                       1  3.0     0.00     0.00 68915.59 68915.66
 scf_env_do_scf_inner_loop           40  4.0     0.01     0.03 68915.59 68915.66
 qs_scf_new_mos_kp                   40  5.0     0.00     0.00 68548.83 68549.23
 do_general_diag_kp                  40  6.0     0.08     0.11 68548.83 68549.23
 cp_cfm_geeig                       160  7.0     0.01     0.02 62593.55 63494.63
 cp_cfm_heevd                       160  8.0 35399.49 35922.49 35399.49 35922.49
 cp_cfm_triangular_multiply         480  8.0 22167.72 22517.88 22167.72 22517.88
 kpoint_set_mo_occupation            40  7.0     1.57     1.69  2337.02  3239.96
 mp_sum_dm3                          40  8.0  2335.45  3238.33  2335.45  3238.33
 cp_cfm_triangular_invert           160  8.0  2647.63  2697.68  2647.63  2697.68
 kpoint_density_matrices             40  7.0     0.29     0.34  2556.48  2602.50
 cp_gemm                            640  8.0     0.01     0.01  2555.34  2601.37
 cp_gemm_fm_gemm                    640  9.0     0.00     0.00  2555.33  2601.37
 cp_fm_gemm                         640 10.0  2555.33  2601.36  2555.33  2601.36
 cp_cfm_cholesky_decompose          160  8.0  2378.12  2467.83  2378.12  2467.83
 -------------------------------------------------------------------------------

 The number of warnings for this run is : 1
 
 -------------------------------------------------------------------------------
  **** **** ******  **  PROGRAM ENDED AT                 2022-08-14 06:59:17.768
 ***** ** ***  *** **   PROGRAM RAN ON                cx3-15-26.cx3.hpc.ic.ac.uk
 **    ****   ******    PROGRAM RAN BY                                    jj1921
 ***** **    ** ** **   PROGRAM PROCESS ID                               1437348
  **** **  *******  **  PROGRAM STOPPED IN /rds/general/user/jj1921/home/junctio
                                           n/lateral/lateral_8
