ATOMS
H             0.00000000      0.00000000     -0.01205252            -0.11756720      0.69726462     -0.00007226
H             0.00000000      0.00000000      0.74206735             0.11756720     -0.69726462      0.00007226
