ATOMS
H             0.00000000      0.00000000     -0.01205252            -0.00002418     -0.09988043     -0.70001707
H             0.00000000      0.00000000      0.74206735            -0.00002418     -0.09988043     -0.70001707
