ATOMS
H             0.00000000      0.00000000     -0.01205252             0.69726461      0.11756721      0.00011414
H             0.00000000      0.00000000      0.74206735            -0.69726461     -0.11756721     -0.00011414
