 DBCSR| CPU Multiplication driver                                           XSMM
 DBCSR| Multrec recursion limit                                              512
 DBCSR| Multiplication stack size                                           1000
 DBCSR| Maximum elements for images                                    UNLIMITED
 DBCSR| Multiplicative factor virtual images                                   1
 DBCSR| Use multiplication densification                                       T
 DBCSR| Multiplication size stacks                                             3
 DBCSR| Use memory pool for CPU allocation                                     F
 DBCSR| Number of 3D layers                                               SINGLE
 DBCSR| Use MPI memory allocation                                              F
 DBCSR| Use RMA algorithm                                                      F
 DBCSR| Use Communication thread                                               T
 DBCSR| Communication thread load                                             87
 DBCSR| MPI: My node id                                                        0
 DBCSR| MPI: Number of nodes                                                  24
 DBCSR| OMP: Current number of threads                                         1
 DBCSR| OMP: Max number of threads                                             1
 DBCSR| Split modifier for TAS multiplication algorithm                  1.0E+00


  **** **** ******  **  PROGRAM STARTED AT               2022-10-20 13:43:20.151
 ***** ** ***  *** **   PROGRAM STARTED ON                 cn1138.scarf.rl.ac.uk
 **    ****   ******    PROGRAM STARTED BY                             scarf1157
 ***** **    ** ** **   PROGRAM PROCESS ID                                  9528
  **** **  *******  **  PROGRAM STARTED IN /work4/scd/scarf1157/work/testing/cp2
                                           k-smeagol/bdt/hollow-site/em-cp2k/geo
                                           _opt/dzp-frozen-au-bulk

 CP2K| version string:                 CP2K version 2022.1 (Development Version)
 CP2K| source code revision number:                                  git:8c0411e
 CP2K| cp2kflags: omp libint fftw3 libxc parallel mpi3 scalapack cosma xsmm spgl
 CP2K|            ib sirius libvori libbqb libvdwxc
 CP2K| is freely available from                            https://www.cp2k.org/
 CP2K| Program compiled at                          Thu  6 Oct 11:48:07 BST 2022
 CP2K| Program compiled on                                 cn1065.scarf.rl.ac.uk
 CP2K| Program compiled for                                                local
 CP2K| Data directory path     /home/vol07/scarf1157/code/cp2k/scarf21/cp2k/data
 CP2K| Input file name                                             2_dft_wfn.inp

 GLOBAL| Force Environment number                                              1
 GLOBAL| Basis set file name                                        BASIS_MOLOPT
 GLOBAL| Potential file name                                      GTH_POTENTIALS
 GLOBAL| MM Potential file name                                     MM_POTENTIAL
 GLOBAL| Coordinate file name                                             em.xyz
 GLOBAL| Method name                                                        CP2K
 GLOBAL| Project name                                                    dft_wfn
 GLOBAL| Run type                                                        GEO_OPT
 GLOBAL| FFT library                                                       FFTW3
 GLOBAL| Diagonalization library                                       ScaLAPACK
 GLOBAL| DGEMM library                                                      BLAS
 GLOBAL| Orthonormality check for eigenvectors                          DISABLED
 GLOBAL| Matrix multiplication library                                     COSMA
 GLOBAL| All-to-all communication in single precision                          F
 GLOBAL| FFTs using library dependent lengths                                  T
 GLOBAL| Grid backend                                                       AUTO
 GLOBAL| Global print level                                               MEDIUM
 GLOBAL| MPI I/O enabled                                                       T
 GLOBAL| Total number of message passing processes                            24
 GLOBAL| Number of threads for this process                                    1
 GLOBAL| This output is from process                                           0
 GLOBAL| Stack size for threads created by OpenMP (OMP_STACKSIZE)        default
 GLOBAL| CPU model name                         AMD EPYC 7502P 32-Core Processor
 GLOBAL| CPUID                                                              1002
 GLOBAL| Compiled for CPUID                                                    0

 *** HINT in environment.F:884 :: The compiler target flags (generic) used ***
 *** to build this binary cannot exploit all extensions of this CPU model  ***
 *** (x86_avx2). Consider compiler target flags as part of FCFLAGS and     ***
 *** CFLAGS (ARCH file).                                                   ***


 MEMORY| system memory details [Kb]
 MEMORY|                        rank 0           min           max       average
 MEMORY| MemTotal            263897160     263897160     263897160     263897160
 MEMORY| MemFree             237780524     237780524     237780524     237780524
 MEMORY| Buffers                  2560          2560          2560          2560
 MEMORY| Cached                6592680       6592680       6592680       6592680
 MEMORY| Slab                  1026836       1026836       1026836       1026836
 MEMORY| SReclaimable           544328        544328        544328        544328
 MEMORY| MemLikelyFree       244920092     244920092     244920092     244920092


 *** Fundamental physical constants (SI units) ***

 *** Literature: B. J. Mohr and B. N. Taylor,
 ***             CODATA recommended values of the fundamental physical
 ***             constants: 2006, Web Version 5.1
 ***             http://physics.nist.gov/constants

 Speed of light in vacuum [m/s]                             2.99792458000000E+08
 Magnetic constant or permeability of vacuum [N/A**2]       1.25663706143592E-06
 Electric constant or permittivity of vacuum [F/m]          8.85418781762039E-12
 Planck constant (h) [J*s]                                  6.62606896000000E-34
 Planck constant (h-bar) [J*s]                              1.05457162825177E-34
 Elementary charge [C]                                      1.60217648700000E-19
 Electron mass [kg]                                         9.10938215000000E-31
 Electron g factor [ ]                                     -2.00231930436220E+00
 Proton mass [kg]                                           1.67262163700000E-27
 Fine-structure constant                                    7.29735253760000E-03
 Rydberg constant [1/m]                                     1.09737315685270E+07
 Avogadro constant [1/mol]                                  6.02214179000000E+23
 Boltzmann constant [J/K]                                   1.38065040000000E-23
 Atomic mass unit [kg]                                      1.66053878200000E-27
 Bohr radius [m]                                            5.29177208590000E-11

 *** Conversion factors ***

 [u] -> [a.u.]                                              1.82288848426455E+03
 [Angstrom] -> [Bohr] = [a.u.]                              1.88972613288564E+00
 [a.u.] = [Bohr] -> [Angstrom]                              5.29177208590000E-01
 [a.u.] -> [s]                                              2.41888432650478E-17
 [a.u.] -> [fs]                                             2.41888432650478E-02
 [a.u.] -> [J]                                              4.35974393937059E-18
 [a.u.] -> [N]                                              8.23872205491840E-08
 [a.u.] -> [K]                                              3.15774647902944E+05
 [a.u.] -> [kJ/mol]                                         2.62549961709828E+03
 [a.u.] -> [kcal/mol]                                       6.27509468713739E+02
 [a.u.] -> [Pa]                                             2.94210107994716E+13
 [a.u.] -> [bar]                                            2.94210107994716E+08
 [a.u.] -> [atm]                                            2.90362800883016E+08
 [a.u.] -> [eV]                                             2.72113838565563E+01
 [a.u.] -> [Hz]                                             6.57968392072181E+15
 [a.u.] -> [1/cm] (wave numbers)                            2.19474631370540E+05
 [a.u./Bohr**2] -> [1/cm]                                   5.14048714338585E+03
 

 CELL_TOP| Volume [angstrom^3]:                                      7127.721916
 CELL_TOP| Vector a [angstrom    16.685     0.000     0.000   |a| =    16.685150
 CELL_TOP| Vector b [angstrom     0.000    16.685     0.000   |b| =    16.685150
 CELL_TOP| Vector c [angstrom     0.000     0.000    25.603   |c| =    25.602980
 CELL_TOP| Angle (b,c), alpha [degree]:                                90.000000
 CELL_TOP| Angle (a,c), beta  [degree]:                                90.000000
 CELL_TOP| Angle (a,b), gamma [degree]:                                90.000000
 CELL_TOP| Numerically orthorhombic:                                         YES
 CELL_TOP| Periodicity                                                       XYZ

 GENERATE|  Preliminary Number of Bonds generated:                             0
 GENERATE|  Achieved consistency in connectivity generation.

 CELL| Volume [angstrom^3]:                                          7127.721916
 CELL| Vector a [angstrom]:      16.685     0.000     0.000   |a| =    16.685150
 CELL| Vector b [angstrom]:       0.000    16.685     0.000   |b| =    16.685150
 CELL| Vector c [angstrom]:       0.000     0.000    25.603   |c| =    25.602980
 CELL| Angle (b,c), alpha [degree]:                                    90.000000
 CELL| Angle (a,c), beta  [degree]:                                    90.000000
 CELL| Angle (a,b), gamma [degree]:                                    90.000000
 CELL| Numerically orthorhombic:                                             YES
 CELL| Periodicity                                                           XYZ

 CELL_REF| Volume [angstrom^3]:                                      7127.721916
 CELL_REF| Vector a [angstrom    16.685     0.000     0.000   |a| =    16.685150
 CELL_REF| Vector b [angstrom     0.000    16.685     0.000   |b| =    16.685150
 CELL_REF| Vector c [angstrom     0.000     0.000    25.603   |c| =    25.602980
 CELL_REF| Angle (b,c), alpha [degree]:                                90.000000
 CELL_REF| Angle (a,c), beta  [degree]:                                90.000000
 CELL_REF| Angle (a,b), gamma [degree]:                                90.000000
 CELL_REF| Numerically orthorhombic:                                         YES
 CELL_REF| Periodicity                                                       XYZ

 *******************************************************************************
 *******************************************************************************
 **                                                                           **
 **     #####                         ##              ##                      **
 **    ##   ##            ##          ##              ##                      **
 **   ##     ##                       ##            ######                    **
 **   ##     ##  ##   ##  ##   #####  ##  ##   ####   ##    #####    #####    **
 **   ##     ##  ##   ##  ##  ##      ## ##   ##      ##   ##   ##  ##   ##   **
 **   ##  ## ##  ##   ##  ##  ##      ####     ###    ##   ######   ######    **
 **    ##  ###   ##   ##  ##  ##      ## ##      ##   ##   ##       ##        **
 **     #######   #####   ##   #####  ##  ##  ####    ##    #####   ##        **
 **           ##                                                    ##        **
 **                                                                           **
 **                                                ... make the atoms dance   **
 **                                                                           **
 **            Copyright (C) by CP2K developers group (2000-2022)             **
 **                      J. Chem. Phys. 152, 194103 (2020)                    **
 **                                                                           **
 *******************************************************************************

 DFT| Spin restricted Kohn-Sham (RKS) calculation                            RKS
 DFT| Multiplicity                                                             1
 DFT| Number of spin states                                                    1
 DFT| Charge                                                                   0
 DFT| Self-interaction correction (SIC)                                       NO
 DFT| Cutoffs: density                                              1.000000E-10
 DFT|          gradient                                             1.000000E-10
 DFT|          tau                                                  1.000000E-10
 DFT|          cutoff_smoothing_range                               0.000000E+00
 DFT| XC density smoothing                                                  NONE
 DFT| XC derivatives                                                          PW

 FUNCTIONAL| PADE:
 FUNCTIONAL| S. Goedecker, M. Teter and J. Hutter, Phys. Rev. B 54, 1703 (1996) 


 QS| Method:                                                                 GPW
 QS| Density plane wave grid type                        NON-SPHERICAL FULLSPACE
 QS| Number of grid levels:                                                    4
 QS| Density cutoff [a.u.]:                                                200.0
 QS| Multi grid cutoff [a.u.]: 1) grid level                               200.0
 QS|                           2) grid level                                66.7
 QS|                           3) grid level                                22.2
 QS|                           4) grid level                                 7.4
 QS| Grid level progression factor:                                          3.0
 QS| Relative density cutoff [a.u.]:                                        20.0
 QS| Interaction thresholds: eps_pgf_orb:                                1.0E-05
 QS|                         eps_filter_matrix:                          0.0E+00
 QS|                         eps_core_charge:                            1.0E-12
 QS|                         eps_rho_gspace:                             1.0E-10
 QS|                         eps_rho_rspace:                             1.0E-10
 QS|                         eps_gvg_rspace:                             1.0E-05
 QS|                         eps_ppl:                                    1.0E-02
 QS|                         eps_ppnl:                                   1.0E-07


 ATOMIC KIND INFORMATION

  1. Atomic kind: S                                     Number of atoms:       2

     Orbital Basis Set                                        DZVP-MOLOPT-SR-GTH

       Number of orbital shell sets:                                           1
       Number of orbital shells:                                               5
       Number of primitive Cartesian functions:                                4
       Number of Cartesian basis functions:                                   14
       Number of spherical basis functions:                                   13
       Norm type:                                                              2

       Normalised Cartesian orbitals:

                        Set   Shell   Orbital            Exponent    Coefficient

                          1       1    2s                2.215855       0.308496
                                                         1.131471       0.138505
                                                         0.410168      -0.373736
                                                         0.140587      -0.040370

                          1       2    3s                2.215855      -0.329528
                                                         1.131471      -0.517509
                                                         0.410168       0.787368
                                                         0.140587      -0.322786

                          1       3    3px               2.215855       0.420434
                                                         1.131471      -0.319283
                                                         0.410168      -0.335323
                                                         0.140587      -0.030976
                          1       3    3py               2.215855       0.420434
                                                         1.131471      -0.319283
                                                         0.410168      -0.335323
                                                         0.140587      -0.030976
                          1       3    3pz               2.215855       0.420434
                                                         1.131471      -0.319283
                                                         0.410168      -0.335323
                                                         0.140587      -0.030976

                          1       4    4px               2.215855       0.241296
                                                         1.131471      -0.170582
                                                         0.410168      -0.186977
                                                         0.140587       0.153509
                          1       4    4py               2.215855       0.241296
                                                         1.131471      -0.170582
                                                         0.410168      -0.186977
                                                         0.140587       0.153509
                          1       4    4pz               2.215855       0.241296
                                                         1.131471      -0.170582
                                                         0.410168      -0.186977
                                                         0.140587       0.153509

                          1       5    4dx2              2.215855       0.573559
                                                         1.131471       0.544926
                                                         0.410168       0.228284
                                                         0.140587       0.008811
                          1       5    4dxy              2.215855       0.993434
                                                         1.131471       0.943840
                                                         0.410168       0.395400
                                                         0.140587       0.015260
                          1       5    4dxz              2.215855       0.993434
                                                         1.131471       0.943840
                                                         0.410168       0.395400
                                                         0.140587       0.015260
                          1       5    4dy2              2.215855       0.573559
                                                         1.131471       0.544926
                                                         0.410168       0.228284
                                                         0.140587       0.008811
                          1       5    4dyz              2.215855       0.993434
                                                         1.131471       0.943840
                                                         0.410168       0.395400
                                                         0.140587       0.015260
                          1       5    4dz2              2.215855       0.573559
                                                         1.131471       0.544926
                                                         0.410168       0.228284
                                                         0.140587       0.008811

       Atomic covalent radius [Angstrom]:                                  1.020

       Atomic van der Waals radius [Angstrom]:                             1.800

     GTH Potential information for                                   GTH-PADE-q6

       Description:                       Goedecker-Teter-Hutter pseudopotential
                                           Goedecker et al., PRB 54, 1703 (1996)
                                          Hartwigsen et al., PRB 58, 3641 (1998)
                                                      Krack, TCA 114, 145 (2005)

       Gaussian exponent of the core charge distribution:               2.834467
       Electronic configuration (s p d ...):                               2   4

       Parameters of the local part of the GTH pseudopotential:

                          rloc        C1          C2          C3          C4
                        0.420000   -6.554492

       Parameters of the non-local part of the GTH pseudopotential:

                   l      r(l)      h(i,j,l)

                   0    0.361757    7.905303   -1.731881
                                   -1.731881    4.471698
                   1    0.405285    3.866579

  2. Atomic kind: C                                     Number of atoms:       6

     Orbital Basis Set                                        DZVP-MOLOPT-SR-GTH

       Number of orbital shell sets:                                           1
       Number of orbital shells:                                               5
       Number of primitive Cartesian functions:                                5
       Number of Cartesian basis functions:                                   14
       Number of spherical basis functions:                                   13
       Norm type:                                                              2

       Normalised Cartesian orbitals:

                        Set   Shell   Orbital            Exponent    Coefficient

                          1       1    2s                5.605331       0.322515
                                                         2.113016       0.213043
                                                         0.769911      -0.209686
                                                         0.348157      -0.219794
                                                         0.128212      -0.022789

                          1       2    3s                5.605331       0.552234
                                                         2.113016       0.082072
                                                         0.769911       0.007843
                                                         0.348157       0.136893
                                                         0.128212       0.074283

                          1       3    3px               5.605331      -0.703879
                                                         2.113016      -0.642521
                                                         0.769911      -0.374851
                                                         0.348157      -0.139743
                                                         0.128212      -0.027849
                          1       3    3py               5.605331      -0.703879
                                                         2.113016      -0.642521
                                                         0.769911      -0.374851
                                                         0.348157      -0.139743
                                                         0.128212      -0.027849
                          1       3    3pz               5.605331      -0.703879
                                                         2.113016      -0.642521
                                                         0.769911      -0.374851
                                                         0.348157      -0.139743
                                                         0.128212      -0.027849

                          1       4    4px               5.605331      -0.480376
                                                         2.113016      -0.552894
                                                         0.769911      -0.316145
                                                         0.348157       0.210505
                                                         0.128212       0.076095
                          1       4    4py               5.605331      -0.480376
                                                         2.113016      -0.552894
                                                         0.769911      -0.316145
                                                         0.348157       0.210505
                                                         0.128212       0.076095
                          1       4    4pz               5.605331      -0.480376
                                                         2.113016      -0.552894
                                                         0.769911      -0.316145
                                                         0.348157       0.210505
                                                         0.128212       0.076095

                          1       5    4dx2              5.605331       0.640026
                                                         2.113016       0.274300
                                                         0.769911       0.446711
                                                         0.348157       0.028674
                                                         0.128212       0.029790
                          1       5    4dxy              5.605331       1.108557
                                                         2.113016       0.475102
                                                         0.769911       0.773726
                                                         0.348157       0.049666
                                                         0.128212       0.051599
                          1       5    4dxz              5.605331       1.108557
                                                         2.113016       0.475102
                                                         0.769911       0.773726
                                                         0.348157       0.049666
                                                         0.128212       0.051599
                          1       5    4dy2              5.605331       0.640026
                                                         2.113016       0.274300
                                                         0.769911       0.446711
                                                         0.348157       0.028674
                                                         0.128212       0.029790
                          1       5    4dyz              5.605331       1.108557
                                                         2.113016       0.475102
                                                         0.769911       0.773726
                                                         0.348157       0.049666
                                                         0.128212       0.051599
                          1       5    4dz2              5.605331       0.640026
                                                         2.113016       0.274300
                                                         0.769911       0.446711
                                                         0.348157       0.028674
                                                         0.128212       0.029790

       Atomic covalent radius [Angstrom]:                                  0.770

       Atomic van der Waals radius [Angstrom]:                             1.700

     GTH Potential information for                                   GTH-PADE-q4

       Description:                       Goedecker-Teter-Hutter pseudopotential
                                           Goedecker et al., PRB 54, 1703 (1996)
                                          Hartwigsen et al., PRB 58, 3641 (1998)
                                                      Krack, TCA 114, 145 (2005)

       Gaussian exponent of the core charge distribution:               4.109048
       Electronic configuration (s p d ...):                               2   2

       Parameters of the local part of the GTH pseudopotential:

                          rloc        C1          C2          C3          C4
                        0.348830   -8.513771    1.228432

       Parameters of the non-local part of the GTH pseudopotential:

                   l      r(l)      h(i,j,l)

                   0    0.304553    9.522842
                   1    0.232677

  3. Atomic kind: H                                     Number of atoms:       4

     Orbital Basis Set                                        DZVP-MOLOPT-SR-GTH

       Number of orbital shell sets:                                           1
       Number of orbital shells:                                               3
       Number of primitive Cartesian functions:                                5
       Number of Cartesian basis functions:                                    5
       Number of spherical basis functions:                                    5
       Norm type:                                                              2

       Normalised Cartesian orbitals:

                        Set   Shell   Orbital            Exponent    Coefficient

                          1       1    2s               10.068468      -0.133023
                                                         2.680223      -0.177618
                                                         0.791502      -0.258419
                                                         0.239116      -0.107525
                                                         0.082193      -0.014019

                          1       2    3s               10.068468       0.344673
                                                         2.680223       1.819821
                                                         0.791502      -0.999069
                                                         0.239116       0.017430
                                                         0.082193       0.082660

                          1       3    3px              10.068468       0.155326
                                                         2.680223       0.367157
                                                         0.791502       0.311480
                                                         0.239116       0.080105
                                                         0.082193       0.033440
                          1       3    3py              10.068468       0.155326
                                                         2.680223       0.367157
                                                         0.791502       0.311480
                                                         0.239116       0.080105
                                                         0.082193       0.033440
                          1       3    3pz              10.068468       0.155326
                                                         2.680223       0.367157
                                                         0.791502       0.311480
                                                         0.239116       0.080105
                                                         0.082193       0.033440

       Atomic covalent radius [Angstrom]:                                  0.320

       Atomic van der Waals radius [Angstrom]:                             1.090

     GTH Potential information for                                   GTH-PADE-q1

       Description:                       Goedecker-Teter-Hutter pseudopotential
                                           Goedecker et al., PRB 54, 1703 (1996)
                                          Hartwigsen et al., PRB 58, 3641 (1998)
                                                      Krack, TCA 114, 145 (2005)

       Gaussian exponent of the core charge distribution:              12.500000
       Electronic configuration (s p d ...):                                   1

       Parameters of the local part of the GTH pseudopotential:

                          rloc        C1          C2          C3          C4
                        0.200000   -4.180237    0.725075

  4. Atomic kind: Au                                    Number of atoms:     288

     Orbital Basis Set                                         SZV-MOLOPT-SR-GTH

       Number of orbital shell sets:                                           1
       Number of orbital shells:                                               3
       Number of primitive Cartesian functions:                                5
       Number of Cartesian basis functions:                                   10
       Number of spherical basis functions:                                    9
       Norm type:                                                              2

       Normalised Cartesian orbitals:

                        Set   Shell   Orbital            Exponent    Coefficient

                          1       1    2s                2.950008       0.074626
                                                         1.563057      -0.007898
                                                         0.666664      -0.297688
                                                         0.251083       0.136809
                                                         0.081714       0.088198

                          1       2    3px               2.950008       0.148824
                                                         1.563057       0.025430
                                                         0.666664      -0.123003
                                                         0.251083       0.033648
                                                         0.081714       0.059008
                          1       2    3py               2.950008       0.148824
                                                         1.563057       0.025430
                                                         0.666664      -0.123003
                                                         0.251083       0.033648
                                                         0.081714       0.059008
                          1       2    3pz               2.950008       0.148824
                                                         1.563057       0.025430
                                                         0.666664      -0.123003
                                                         0.251083       0.033648
                                                         0.081714       0.059008

                          1       3    4dx2              2.950008      -0.139595
                                                         1.563057       1.319655
                                                         0.666664       0.377081
                                                         0.251083       0.046872
                                                         0.081714       0.001393
                          1       3    4dxy              2.950008      -0.241786
                                                         1.563057       2.285709
                                                         0.666664       0.653124
                                                         0.251083       0.081185
                                                         0.081714       0.002412
                          1       3    4dxz              2.950008      -0.241786
                                                         1.563057       2.285709
                                                         0.666664       0.653124
                                                         0.251083       0.081185
                                                         0.081714       0.002412
                          1       3    4dy2              2.950008      -0.139595
                                                         1.563057       1.319655
                                                         0.666664       0.377081
                                                         0.251083       0.046872
                                                         0.081714       0.001393
                          1       3    4dyz              2.950008      -0.241786
                                                         1.563057       2.285709
                                                         0.666664       0.653124
                                                         0.251083       0.081185
                                                         0.081714       0.002412
                          1       3    4dz2              2.950008      -0.139595
                                                         1.563057       1.319655
                                                         0.666664       0.377081
                                                         0.251083       0.046872
                                                         0.081714       0.001393

       Atomic covalent radius [Angstrom]:                                  1.340

       Atomic van der Waals radius [Angstrom]:                             1.660

     GTH Potential information for                                  GTH-PADE-q11

       Description:                       Goedecker-Teter-Hutter pseudopotential
                                           Goedecker et al., PRB 54, 1703 (1996)
                                          Hartwigsen et al., PRB 58, 3641 (1998)
                                                      Krack, TCA 114, 145 (2005)

       Gaussian exponent of the core charge distribution:               1.436369
       Electronic configuration (s p d ...):                           1   0  10

       Parameters of the local part of the GTH pseudopotential:

                          rloc        C1          C2          C3          C4
                        0.590000   11.604428

       Parameters of the non-local part of the GTH pseudopotential:

                   l      r(l)      h(i,j,l)

                   0    0.521180    2.538614   -1.046137
                                   -1.046137    2.701113
                   1    0.630613    0.394853   -0.869592
                                   -0.869592    2.057831
                   2    0.440706   -4.719070    0.727771
                                    0.727771   -1.650429


 MOLECULE KIND INFORMATION


 All atoms are their own molecule, skipping detailed information


 TOTAL NUMBERS AND MAXIMUM NUMBERS

  Total number of            - Atomic kinds:                                   4
                             - Atoms:                                        300
                             - Shell sets:                                   300
                             - Shells:                                       916
                             - Primitive Cartesian functions:               1498
                             - Cartesian basis functions:                   3012
                             - Spherical basis functions:                   2716

  Maximum angular momentum of- Orbital basis functions:                        2
                             - Local part of the GTH pseudopotential:          2
                             - Non-local part of the GTH pseudopotential:      4


 MODULE QUICKSTEP: ATOMIC COORDINATES IN ANGSTROM

   Atom Kind Element         X             Y             Z       Z(eff)     Mass
      1    1 S    16      9.385401     11.471041     17.017724   6.0000  32.0650
      2    2 C     6      9.371421     11.464971     15.256224   4.0000  12.0107
      3    2 C     6      8.172851     11.459011     14.555754   4.0000  12.0107
      4    2 C     6     10.580701     11.459011     14.555754   4.0000  12.0107
      5    1 S    16      9.385401     11.471041     10.670944   6.0000  32.0650
      6    2 C     6      9.388801     11.474891     12.432444   4.0000  12.0107
      7    2 C     6     10.587371     11.480861     13.132904   4.0000  12.0107
      8    2 C     6      8.179521     11.480861     13.132904   4.0000  12.0107
      9    3 H     1      7.276671     11.438711     15.067114   1.0000   1.0079
     10    3 H     1     11.473461     11.438651     15.073034   1.0000   1.0079
     11    3 H     1     11.483551     11.501151     12.621554   1.0000   1.0079
     12    3 H     1      7.286761     11.501221     12.615634   1.0000   1.0079
     13    4 Au   79      1.042821      1.042821      9.385400  11.0000 196.9666
     14    4 Au   79      3.128465      3.128465      9.385400  11.0000 196.9666
     15    4 Au   79      5.214109      1.042821      9.385400  11.0000 196.9666
     16    4 Au   79     13.556685      1.042821      9.385400  11.0000 196.9666
     17    4 Au   79      1.042821      5.214109      9.385400  11.0000 196.9666
     18    4 Au   79      1.042821     13.556685      9.385400  11.0000 196.9666
     19    4 Au   79      7.299753      3.128465      9.385400  11.0000 196.9666
     20    4 Au   79     15.642329      3.128465      9.385400  11.0000 196.9666
     21    4 Au   79      3.128465      7.299753      9.385400  11.0000 196.9666
     22    4 Au   79      3.128465     15.642329      9.385400  11.0000 196.9666
     23    4 Au   79      5.214109      5.214109      9.385400  11.0000 196.9666
     24    4 Au   79     13.556685     13.556685      9.385400  11.0000 196.9666
     25    4 Au   79     13.556685      5.214109      9.385400  11.0000 196.9666
     26    4 Au   79      5.214109     13.556685      9.385400  11.0000 196.9666
     27    4 Au   79      7.299753      7.299753      9.385400  11.0000 196.9666
     28    4 Au   79     15.642329     15.642329      9.385400  11.0000 196.9666
     29    4 Au   79     15.642329      7.299753      9.385400  11.0000 196.9666
     30    4 Au   79      7.299753     15.642329      9.385400  11.0000 196.9666
     31    4 Au   79      1.042821      9.385397      9.385400  11.0000 196.9666
     32    4 Au   79      9.385397      1.042821      9.385400  11.0000 196.9666
     33    4 Au   79      3.128465     11.471041      9.385400  11.0000 196.9666
     34    4 Au   79     11.471041      3.128465      9.385400  11.0000 196.9666
     35    4 Au   79      9.385397      5.214109      9.385400  11.0000 196.9666
     36    4 Au   79      9.385397     13.556685      9.385400  11.0000 196.9666
     37    4 Au   79      5.214109      9.385397      9.385400  11.0000 196.9666
     38    4 Au   79     13.556685      9.385397      9.385400  11.0000 196.9666
     39    4 Au   79     11.471041      7.299753      9.385400  11.0000 196.9666
     40    4 Au   79     11.471041     15.642329      9.385400  11.0000 196.9666
     41    4 Au   79      7.299753     11.471041      9.385400  11.0000 196.9666
     42    4 Au   79     15.642329     11.471041      9.385400  11.0000 196.9666
     43    4 Au   79      9.385397      9.385397      9.385400  11.0000 196.9666
     44    4 Au   79     11.471041     11.471041      9.385400  11.0000 196.9666
     45    4 Au   79      1.042821      1.042821     18.303225  11.0000 196.9666
     46    4 Au   79      3.128465      3.128465     18.303225  11.0000 196.9666
     47    4 Au   79      5.214109      1.042821     18.303225  11.0000 196.9666
     48    4 Au   79     13.556685      1.042821     18.303225  11.0000 196.9666
     49    4 Au   79      1.042821      5.214109     18.303225  11.0000 196.9666
     50    4 Au   79      1.042821     13.556685     18.303225  11.0000 196.9666
     51    4 Au   79      7.299753      3.128465     18.303225  11.0000 196.9666
     52    4 Au   79     15.642329      3.128465     18.303225  11.0000 196.9666
     53    4 Au   79      3.128465      7.299753     18.303225  11.0000 196.9666
     54    4 Au   79      3.128465     15.642329     18.303225  11.0000 196.9666
     55    4 Au   79      5.214109      5.214109     18.303225  11.0000 196.9666
     56    4 Au   79     13.556685     13.556685     18.303225  11.0000 196.9666
     57    4 Au   79     13.556685      5.214109     18.303225  11.0000 196.9666
     58    4 Au   79      5.214109     13.556685     18.303225  11.0000 196.9666
     59    4 Au   79      7.299753      7.299753     18.303225  11.0000 196.9666
     60    4 Au   79     15.642329     15.642329     18.303225  11.0000 196.9666
     61    4 Au   79     15.642329      7.299753     18.303225  11.0000 196.9666
     62    4 Au   79      7.299753     15.642329     18.303225  11.0000 196.9666
     63    4 Au   79      1.042821      9.385397     18.303225  11.0000 196.9666
     64    4 Au   79      9.385397      1.042821     18.303225  11.0000 196.9666
     65    4 Au   79      3.128465     11.471041     18.303225  11.0000 196.9666
     66    4 Au   79     11.471041      3.128465     18.303225  11.0000 196.9666
     67    4 Au   79      9.385397      5.214109     18.303225  11.0000 196.9666
     68    4 Au   79      9.385397     13.556685     18.303225  11.0000 196.9666
     69    4 Au   79      5.214109      9.385397     18.303225  11.0000 196.9666
     70    4 Au   79     13.556685      9.385397     18.303225  11.0000 196.9666
     71    4 Au   79     11.471041      7.299753     18.303225  11.0000 196.9666
     72    4 Au   79     11.471041     15.642329     18.303225  11.0000 196.9666
     73    4 Au   79      7.299753     11.471041     18.303225  11.0000 196.9666
     74    4 Au   79     15.642329     11.471041     18.303225  11.0000 196.9666
     75    4 Au   79      9.385397      9.385397     18.303225  11.0000 196.9666
     76    4 Au   79     11.471041     11.471041     18.303225  11.0000 196.9666
     77    4 Au   79      1.042821      3.128465      7.299756  11.0000 196.9666
     78    4 Au   79      3.128465      1.042821      7.299756  11.0000 196.9666
     79    4 Au   79      1.042821      7.299753      7.299756  11.0000 196.9666
     80    4 Au   79      1.042821     15.642329      7.299756  11.0000 196.9666
     81    4 Au   79      5.214109      3.128465      7.299756  11.0000 196.9666
     82    4 Au   79     13.556685      3.128465      7.299756  11.0000 196.9666
     83    4 Au   79      3.128465      5.214109      7.299756  11.0000 196.9666
     84    4 Au   79      3.128465     13.556685      7.299756  11.0000 196.9666
     85    4 Au   79      7.299753      1.042821      7.299756  11.0000 196.9666
     86    4 Au   79     15.642329      1.042821      7.299756  11.0000 196.9666
     87    4 Au   79      1.042821     11.471041      7.299756  11.0000 196.9666
     88    4 Au   79      9.385397      3.128465      7.299756  11.0000 196.9666
     89    4 Au   79      3.128465      9.385397      7.299756  11.0000 196.9666
     90    4 Au   79     11.471041      1.042821      7.299756  11.0000 196.9666
     91    4 Au   79      5.214109      7.299753      7.299756  11.0000 196.9666
     92    4 Au   79     13.556685     15.642329      7.299756  11.0000 196.9666
     93    4 Au   79     13.556685      7.299753      7.299756  11.0000 196.9666
     94    4 Au   79      5.214109     15.642329      7.299756  11.0000 196.9666
     95    4 Au   79      7.299753      5.214109      7.299756  11.0000 196.9666
     96    4 Au   79     15.642329     13.556685      7.299756  11.0000 196.9666
     97    4 Au   79     15.642329      5.214109      7.299756  11.0000 196.9666
     98    4 Au   79      7.299753     13.556685      7.299756  11.0000 196.9666
     99    4 Au   79      5.214109     11.471041      7.299756  11.0000 196.9666
    100    4 Au   79     13.556685     11.471041      7.299756  11.0000 196.9666
    101    4 Au   79      9.385397      7.299753      7.299756  11.0000 196.9666
    102    4 Au   79      9.385397     15.642329      7.299756  11.0000 196.9666
    103    4 Au   79      7.299753      9.385397      7.299756  11.0000 196.9666
    104    4 Au   79     15.642329      9.385397      7.299756  11.0000 196.9666
    105    4 Au   79     11.471041      5.214109      7.299756  11.0000 196.9666
    106    4 Au   79     11.471041     13.556685      7.299756  11.0000 196.9666
    107    4 Au   79      9.385397     11.471041      7.299756  11.0000 196.9666
    108    4 Au   79     11.471041      9.385397      7.299756  11.0000 196.9666
    109    4 Au   79      1.042821      3.128465     20.388869  11.0000 196.9666
    110    4 Au   79      3.128465      1.042821     20.388869  11.0000 196.9666
    111    4 Au   79      5.214109      3.128465     20.388869  11.0000 196.9666
    112    4 Au   79     13.556685      3.128465     20.388869  11.0000 196.9666
    113    4 Au   79      1.042821      7.299753     20.388869  11.0000 196.9666
    114    4 Au   79      1.042821     15.642329     20.388869  11.0000 196.9666
    115    4 Au   79      7.299753      1.042821     20.388869  11.0000 196.9666
    116    4 Au   79     15.642329      1.042821     20.388869  11.0000 196.9666
    117    4 Au   79      3.128465      5.214109     20.388869  11.0000 196.9666
    118    4 Au   79      3.128465     13.556685     20.388869  11.0000 196.9666
    119    4 Au   79      5.214109      7.299753     20.388869  11.0000 196.9666
    120    4 Au   79     13.556685     15.642329     20.388869  11.0000 196.9666
    121    4 Au   79     13.556685      7.299753     20.388869  11.0000 196.9666
    122    4 Au   79      5.214109     15.642329     20.388869  11.0000 196.9666
    123    4 Au   79      7.299753      5.214109     20.388869  11.0000 196.9666
    124    4 Au   79     15.642329     13.556685     20.388869  11.0000 196.9666
    125    4 Au   79     15.642329      5.214109     20.388869  11.0000 196.9666
    126    4 Au   79      7.299753     13.556685     20.388869  11.0000 196.9666
    127    4 Au   79      1.042821     11.471041     20.388869  11.0000 196.9666
    128    4 Au   79      9.385397      3.128465     20.388869  11.0000 196.9666
    129    4 Au   79      3.128465      9.385397     20.388869  11.0000 196.9666
    130    4 Au   79     11.471041      1.042821     20.388869  11.0000 196.9666
    131    4 Au   79      9.385397      7.299753     20.388869  11.0000 196.9666
    132    4 Au   79      9.385397     15.642329     20.388869  11.0000 196.9666
    133    4 Au   79      5.214109     11.471041     20.388869  11.0000 196.9666
    134    4 Au   79     13.556685     11.471041     20.388869  11.0000 196.9666
    135    4 Au   79     11.471041      5.214109     20.388869  11.0000 196.9666
    136    4 Au   79     11.471041     13.556685     20.388869  11.0000 196.9666
    137    4 Au   79      7.299753      9.385397     20.388869  11.0000 196.9666
    138    4 Au   79     15.642329      9.385397     20.388869  11.0000 196.9666
    139    4 Au   79      9.385397     11.471041     20.388869  11.0000 196.9666
    140    4 Au   79     11.471041      9.385397     20.388869  11.0000 196.9666
    141    4 Au   79      1.042821      1.042821      1.042824  11.0000 196.9666
    142    4 Au   79      1.042821      3.128465      3.128468  11.0000 196.9666
    143    4 Au   79      3.128465      1.042821      3.128468  11.0000 196.9666
    144    4 Au   79      3.128465      3.128465      1.042824  11.0000 196.9666
    145    4 Au   79      1.042821      1.042821      5.214112  11.0000 196.9666
    146    4 Au   79      5.214109      1.042821      1.042824  11.0000 196.9666
    147    4 Au   79     13.556685      1.042821      1.042824  11.0000 196.9666
    148    4 Au   79      1.042821      5.214109      1.042824  11.0000 196.9666
    149    4 Au   79      1.042821     13.556685      1.042824  11.0000 196.9666
    150    4 Au   79      5.214109      3.128465      3.128468  11.0000 196.9666
    151    4 Au   79     13.556685      3.128465      3.128468  11.0000 196.9666
    152    4 Au   79      1.042821      7.299753      3.128468  11.0000 196.9666
    153    4 Au   79      1.042821     15.642329      3.128468  11.0000 196.9666
    154    4 Au   79      7.299753      1.042821      3.128468  11.0000 196.9666
    155    4 Au   79     15.642329      1.042821      3.128468  11.0000 196.9666
    156    4 Au   79      3.128465      5.214109      3.128468  11.0000 196.9666
    157    4 Au   79      3.128465     13.556685      3.128468  11.0000 196.9666
    158    4 Au   79      3.128465      3.128465      5.214112  11.0000 196.9666
    159    4 Au   79      7.299753      3.128465      1.042824  11.0000 196.9666
    160    4 Au   79     15.642329      3.128465      1.042824  11.0000 196.9666
    161    4 Au   79      3.128465      7.299753      1.042824  11.0000 196.9666
    162    4 Au   79      3.128465     15.642329      1.042824  11.0000 196.9666
    163    4 Au   79      1.042821      5.214109      5.214112  11.0000 196.9666
    164    4 Au   79      1.042821     13.556685      5.214112  11.0000 196.9666
    165    4 Au   79      5.214109      1.042821      5.214112  11.0000 196.9666
    166    4 Au   79     13.556685      1.042821      5.214112  11.0000 196.9666
    167    4 Au   79      5.214109      5.214109      1.042824  11.0000 196.9666
    168    4 Au   79     13.556685     13.556685      1.042824  11.0000 196.9666
    169    4 Au   79     13.556685      5.214109      1.042824  11.0000 196.9666
    170    4 Au   79      5.214109     13.556685      1.042824  11.0000 196.9666
    171    4 Au   79      5.214109      7.299753      3.128468  11.0000 196.9666
    172    4 Au   79     13.556685     15.642329      3.128468  11.0000 196.9666
    173    4 Au   79     13.556685      7.299753      3.128468  11.0000 196.9666
    174    4 Au   79      5.214109     15.642329      3.128468  11.0000 196.9666
    175    4 Au   79      7.299753      5.214109      3.128468  11.0000 196.9666
    176    4 Au   79     15.642329     13.556685      3.128468  11.0000 196.9666
    177    4 Au   79     15.642329      5.214109      3.128468  11.0000 196.9666
    178    4 Au   79      7.299753     13.556685      3.128468  11.0000 196.9666
    179    4 Au   79      3.128465      7.299753      5.214112  11.0000 196.9666
    180    4 Au   79      3.128465     15.642329      5.214112  11.0000 196.9666
    181    4 Au   79      7.299753      3.128465      5.214112  11.0000 196.9666
    182    4 Au   79     15.642329      3.128465      5.214112  11.0000 196.9666
    183    4 Au   79      7.299753      7.299753      1.042824  11.0000 196.9666
    184    4 Au   79     15.642329     15.642329      1.042824  11.0000 196.9666
    185    4 Au   79     15.642329      7.299753      1.042824  11.0000 196.9666
    186    4 Au   79      7.299753     15.642329      1.042824  11.0000 196.9666
    187    4 Au   79      1.042821      9.385397      1.042824  11.0000 196.9666
    188    4 Au   79      9.385397      1.042821      1.042824  11.0000 196.9666
    189    4 Au   79      1.042821     11.471041      3.128468  11.0000 196.9666
    190    4 Au   79      9.385397      3.128465      3.128468  11.0000 196.9666
    191    4 Au   79      3.128465      9.385397      3.128468  11.0000 196.9666
    192    4 Au   79     11.471041      1.042821      3.128468  11.0000 196.9666
    193    4 Au   79      3.128465     11.471041      1.042824  11.0000 196.9666
    194    4 Au   79     11.471041      3.128465      1.042824  11.0000 196.9666
    195    4 Au   79      1.042821      9.385397      5.214112  11.0000 196.9666
    196    4 Au   79      9.385397      5.214109      1.042824  11.0000 196.9666
    197    4 Au   79      9.385397     13.556685      1.042824  11.0000 196.9666
    198    4 Au   79      9.385397      1.042821      5.214112  11.0000 196.9666
    199    4 Au   79      5.214109      9.385397      1.042824  11.0000 196.9666
    200    4 Au   79     13.556685      9.385397      1.042824  11.0000 196.9666
    201    4 Au   79      9.385397      7.299753      3.128468  11.0000 196.9666
    202    4 Au   79      9.385397     15.642329      3.128468  11.0000 196.9666
    203    4 Au   79      5.214109     11.471041      3.128468  11.0000 196.9666
    204    4 Au   79     13.556685     11.471041      3.128468  11.0000 196.9666
    205    4 Au   79     11.471041      5.214109      3.128468  11.0000 196.9666
    206    4 Au   79     11.471041     13.556685      3.128468  11.0000 196.9666
    207    4 Au   79      7.299753      9.385397      3.128468  11.0000 196.9666
    208    4 Au   79     15.642329      9.385397      3.128468  11.0000 196.9666
    209    4 Au   79      3.128465     11.471041      5.214112  11.0000 196.9666
    210    4 Au   79     11.471041      7.299753      1.042824  11.0000 196.9666
    211    4 Au   79     11.471041     15.642329      1.042824  11.0000 196.9666
    212    4 Au   79     11.471041      3.128465      5.214112  11.0000 196.9666
    213    4 Au   79      7.299753     11.471041      1.042824  11.0000 196.9666
    214    4 Au   79     15.642329     11.471041      1.042824  11.0000 196.9666
    215    4 Au   79      5.214109      5.214109      5.214112  11.0000 196.9666
    216    4 Au   79     13.556685     13.556685      5.214112  11.0000 196.9666
    217    4 Au   79     13.556685      5.214109      5.214112  11.0000 196.9666
    218    4 Au   79      5.214109     13.556685      5.214112  11.0000 196.9666
    219    4 Au   79      7.299753      7.299753      5.214112  11.0000 196.9666
    220    4 Au   79     15.642329     15.642329      5.214112  11.0000 196.9666
    221    4 Au   79     15.642329      7.299753      5.214112  11.0000 196.9666
    222    4 Au   79      7.299753     15.642329      5.214112  11.0000 196.9666
    223    4 Au   79      5.214109      9.385397      5.214112  11.0000 196.9666
    224    4 Au   79     13.556685      9.385397      5.214112  11.0000 196.9666
    225    4 Au   79      9.385397      5.214109      5.214112  11.0000 196.9666
    226    4 Au   79      9.385397     13.556685      5.214112  11.0000 196.9666
    227    4 Au   79      7.299753     11.471041      5.214112  11.0000 196.9666
    228    4 Au   79     15.642329     11.471041      5.214112  11.0000 196.9666
    229    4 Au   79     11.471041      7.299753      5.214112  11.0000 196.9666
    230    4 Au   79     11.471041     15.642329      5.214112  11.0000 196.9666
    231    4 Au   79      9.385397      9.385397      1.042824  11.0000 196.9666
    232    4 Au   79      9.385397     11.471041      3.128468  11.0000 196.9666
    233    4 Au   79     11.471041      9.385397      3.128468  11.0000 196.9666
    234    4 Au   79     11.471041     11.471041      1.042824  11.0000 196.9666
    235    4 Au   79      9.385397      9.385397      5.214112  11.0000 196.9666
    236    4 Au   79     11.471041     11.471041      5.214112  11.0000 196.9666
    237    4 Au   79      1.042821      1.042821     22.474512  11.0000 196.9666
    238    4 Au   79      1.042821      3.128465     24.560156  11.0000 196.9666
    239    4 Au   79      3.128465      1.042821     24.560156  11.0000 196.9666
    240    4 Au   79      3.128465      3.128465     22.474512  11.0000 196.9666
    241    4 Au   79      1.042821      5.214109     22.474512  11.0000 196.9666
    242    4 Au   79      1.042821     13.556685     22.474512  11.0000 196.9666
    243    4 Au   79      5.214109      1.042821     22.474512  11.0000 196.9666
    244    4 Au   79     13.556685      1.042821     22.474512  11.0000 196.9666
    245    4 Au   79      1.042821      7.299753     24.560156  11.0000 196.9666
    246    4 Au   79      1.042821     15.642329     24.560156  11.0000 196.9666
    247    4 Au   79      5.214109      3.128465     24.560156  11.0000 196.9666
    248    4 Au   79     13.556685      3.128465     24.560156  11.0000 196.9666
    249    4 Au   79      3.128465      5.214109     24.560156  11.0000 196.9666
    250    4 Au   79      3.128465     13.556685     24.560156  11.0000 196.9666
    251    4 Au   79      7.299753      1.042821     24.560156  11.0000 196.9666
    252    4 Au   79     15.642329      1.042821     24.560156  11.0000 196.9666
    253    4 Au   79      3.128465      7.299753     22.474512  11.0000 196.9666
    254    4 Au   79      3.128465     15.642329     22.474512  11.0000 196.9666
    255    4 Au   79      7.299753      3.128465     22.474512  11.0000 196.9666
    256    4 Au   79     15.642329      3.128465     22.474512  11.0000 196.9666
    257    4 Au   79      1.042821      9.385397     22.474512  11.0000 196.9666
    258    4 Au   79      9.385397      1.042821     22.474512  11.0000 196.9666
    259    4 Au   79      1.042821     11.471041     24.560156  11.0000 196.9666
    260    4 Au   79      9.385397      3.128465     24.560156  11.0000 196.9666
    261    4 Au   79      3.128465      9.385397     24.560156  11.0000 196.9666
    262    4 Au   79     11.471041      1.042821     24.560156  11.0000 196.9666
    263    4 Au   79      3.128465     11.471041     22.474512  11.0000 196.9666
    264    4 Au   79     11.471041      3.128465     22.474512  11.0000 196.9666
    265    4 Au   79      5.214109      5.214109     22.474512  11.0000 196.9666
    266    4 Au   79     13.556685     13.556685     22.474512  11.0000 196.9666
    267    4 Au   79     13.556685      5.214109     22.474512  11.0000 196.9666
    268    4 Au   79      5.214109     13.556685     22.474512  11.0000 196.9666
    269    4 Au   79      5.214109      7.299753     24.560156  11.0000 196.9666
    270    4 Au   79     13.556685     15.642329     24.560156  11.0000 196.9666
    271    4 Au   79     13.556685      7.299753     24.560156  11.0000 196.9666
    272    4 Au   79      5.214109     15.642329     24.560156  11.0000 196.9666
    273    4 Au   79      7.299753      5.214109     24.560156  11.0000 196.9666
    274    4 Au   79     15.642329     13.556685     24.560156  11.0000 196.9666
    275    4 Au   79     15.642329      5.214109     24.560156  11.0000 196.9666
    276    4 Au   79      7.299753     13.556685     24.560156  11.0000 196.9666
    277    4 Au   79      7.299753      7.299753     22.474512  11.0000 196.9666
    278    4 Au   79     15.642329     15.642329     22.474512  11.0000 196.9666
    279    4 Au   79     15.642329      7.299753     22.474512  11.0000 196.9666
    280    4 Au   79      7.299753     15.642329     22.474512  11.0000 196.9666
    281    4 Au   79      5.214109      9.385397     22.474512  11.0000 196.9666
    282    4 Au   79     13.556685      9.385397     22.474512  11.0000 196.9666
    283    4 Au   79      9.385397      5.214109     22.474512  11.0000 196.9666
    284    4 Au   79      9.385397     13.556685     22.474512  11.0000 196.9666
    285    4 Au   79      5.214109     11.471041     24.560156  11.0000 196.9666
    286    4 Au   79     13.556685     11.471041     24.560156  11.0000 196.9666
    287    4 Au   79      9.385397      7.299753     24.560156  11.0000 196.9666
    288    4 Au   79      9.385397     15.642329     24.560156  11.0000 196.9666
    289    4 Au   79      7.299753      9.385397     24.560156  11.0000 196.9666
    290    4 Au   79     15.642329      9.385397     24.560156  11.0000 196.9666
    291    4 Au   79     11.471041      5.214109     24.560156  11.0000 196.9666
    292    4 Au   79     11.471041     13.556685     24.560156  11.0000 196.9666
    293    4 Au   79      7.299753     11.471041     22.474512  11.0000 196.9666
    294    4 Au   79     15.642329     11.471041     22.474512  11.0000 196.9666
    295    4 Au   79     11.471041      7.299753     22.474512  11.0000 196.9666
    296    4 Au   79     11.471041     15.642329     22.474512  11.0000 196.9666
    297    4 Au   79      9.385397      9.385397     22.474512  11.0000 196.9666
    298    4 Au   79      9.385397     11.471041     24.560156  11.0000 196.9666
    299    4 Au   79     11.471041      9.385397     24.560156  11.0000 196.9666
    300    4 Au   79     11.471041     11.471041     22.474512  11.0000 196.9666



 SCF PARAMETERS         Density guess:                                    ATOMIC
                        --------------------------------------------------------
                        max_scf:                                             100
                        max_scf_history:                                       0
                        max_diis:                                              4
                        --------------------------------------------------------
                        eps_scf:                                        1.00E-07
                        eps_scf_history:                                0.00E+00
                        eps_diis:                                       1.00E-01
                        eps_eigval:                                     1.00E-05
                        --------------------------------------------------------
                        level_shift [a.u.]:                             0.000000
                        added MOs                                       100    0
                        --------------------------------------------------------
                        Mixing method:                            BROYDEN_MIXING
                                                charge density mixing in g-space
                        --------------------------------------------------------
                        Smear method:                                FERMI_DIRAC
                        Electronic temperature [K]:                        293.0
                        Electronic temperature [a.u.]:                  9.28E-04
                        Accuracy threshold:                             1.00E-10
                        --------------------------------------------------------
                        No outer SCF

 PW_GRID| Information for grid number                                          1
 PW_GRID| Grid distributed over                                    24 processors
 PW_GRID| Real space group dimensions                                    24    1
 PW_GRID| the grid is blocked:                                                NO
 PW_GRID| Cutoff [a.u.]                                                    200.0
 PW_GRID| spherical cutoff:                                                   NO
 PW_GRID|   Bounds   1           -105     104                Points:         210
 PW_GRID|   Bounds   2           -105     104                Points:         210
 PW_GRID|   Bounds   3           -157     157                Points:         315
 PW_GRID| Volume element (a.u.^3)  0.3463E-02     Volume (a.u.^3)     48100.2523
 PW_GRID| Grid span                                                    FULLSPACE
 PW_GRID|   Distribution                         Average         Max         Min
 PW_GRID|   G-Vectors                           578812.5      578970      578760
 PW_GRID|   G-Rays                                2756.2        2757        2756
 PW_GRID|   Real Space Points                   578812.5      595350      529200

 PW_GRID| Information for grid number                                          2
 PW_GRID| Number of the reference grid                                         1
 PW_GRID| Grid distributed over                                    24 processors
 PW_GRID| Real space group dimensions                                    24    1
 PW_GRID| the grid is blocked:                                                NO
 PW_GRID| Cutoff [a.u.]                                                     66.7
 PW_GRID| spherical cutoff:                                                   NO
 PW_GRID|   Bounds   1            -60      59                Points:         120
 PW_GRID|   Bounds   2            -60      59                Points:         120
 PW_GRID|   Bounds   3            -90      89                Points:         180
 PW_GRID| Volume element (a.u.^3)  0.1856E-01     Volume (a.u.^3)     48100.2523
 PW_GRID| Grid span                                                    FULLSPACE
 PW_GRID|   Distribution                         Average         Max         Min
 PW_GRID|   G-Vectors                           108000.0      108360      107640
 PW_GRID|   G-Rays                                 900.0         903         897
 PW_GRID|   Real Space Points                   108000.0      108000      108000

 PW_GRID| Information for grid number                                          3
 PW_GRID| Number of the reference grid                                         1
 PW_GRID| Grid distributed over                                    24 processors
 PW_GRID| Real space group dimensions                                    24    1
 PW_GRID| the grid is blocked:                                                NO
 PW_GRID| Cutoff [a.u.]                                                     22.2
 PW_GRID| spherical cutoff:                                                   NO
 PW_GRID|   Bounds   1            -35      34                Points:          70
 PW_GRID|   Bounds   2            -35      34                Points:          70
 PW_GRID|   Bounds   3            -52      52                Points:         105
 PW_GRID| Volume element (a.u.^3)  0.9349E-01     Volume (a.u.^3)     48100.2523
 PW_GRID| Grid span                                                    FULLSPACE
 PW_GRID|   Distribution                         Average         Max         Min
 PW_GRID|   G-Vectors                            21437.5       21910       21070
 PW_GRID|   G-Rays                                 306.2         313         301
 PW_GRID|   Real Space Points                    21437.5       22050       14700

 PW_GRID| Information for grid number                                          4
 PW_GRID| Number of the reference grid                                         1
 PW_GRID| Grid distributed over                                    24 processors
 PW_GRID| Real space group dimensions                                    24    1
 PW_GRID| the grid is blocked:                                                NO
 PW_GRID| Cutoff [a.u.]                                                      7.4
 PW_GRID| spherical cutoff:                                                   NO
 PW_GRID|   Bounds   1            -20      19                Points:          40
 PW_GRID|   Bounds   2            -20      19                Points:          40
 PW_GRID|   Bounds   3            -30      29                Points:          60
 PW_GRID| Volume element (a.u.^3)  0.5010         Volume (a.u.^3)     48100.2523
 PW_GRID| Grid span                                                    FULLSPACE
 PW_GRID|   Distribution                         Average         Max         Min
 PW_GRID|   G-Vectors                             4000.0        4120        3880
 PW_GRID|   G-Rays                                 100.0         103          97
 PW_GRID|   Real Space Points                     4000.0        4800        2400

 POISSON| Solver                                                        PERIODIC
 POISSON| Periodicity                                                        XYZ

 RS_GRID| Information for grid number                                          1
 RS_GRID|   Bounds   1           -105     104                Points:         210
 RS_GRID|   Bounds   2           -105     104                Points:         210
 RS_GRID|   Bounds   3           -157     157                Points:         315
 RS_GRID| Real space distribution over                                  4 groups
 RS_GRID| Real space distribution along direction                              2
 RS_GRID| Border size                                                         30
 RS_GRID| Real space distribution over                                  6 groups
 RS_GRID| Real space distribution along direction                              3
 RS_GRID| Border size                                                         30
 RS_GRID|   Distribution                         Average         Max         Min
 RS_GRID|   Planes                                 112.5         113         112
 RS_GRID|   Distribution                         Average         Max         Min
 RS_GRID|   Planes                                 112.5         113         112

 RS_GRID| Information for grid number                                          2
 RS_GRID|   Bounds   1            -60      59                Points:         120
 RS_GRID|   Bounds   2            -60      59                Points:         120
 RS_GRID|   Bounds   3            -90      89                Points:         180
 RS_GRID| Real space distribution over                                  4 groups
 RS_GRID| Real space distribution along direction                              2
 RS_GRID| Border size                                                         22
 RS_GRID| Real space distribution over                                  6 groups
 RS_GRID| Real space distribution along direction                              3
 RS_GRID| Border size                                                         22
 RS_GRID|   Distribution                         Average         Max         Min
 RS_GRID|   Planes                                  74.0          74          74
 RS_GRID|   Distribution                         Average         Max         Min
 RS_GRID|   Planes                                  74.0          74          74

 RS_GRID| Information for grid number                                          3
 RS_GRID|   Bounds   1            -35      34                Points:          70
 RS_GRID|   Bounds   2            -35      34                Points:          70
 RS_GRID|   Bounds   3            -52      52                Points:         105
 RS_GRID| Real space fully replicated
 RS_GRID| Group size                                                           1

 RS_GRID| Information for grid number                                          4
 RS_GRID|   Bounds   1            -20      19                Points:          40
 RS_GRID|   Bounds   2            -20      19                Points:          40
 RS_GRID|   Bounds   3            -30      29                Points:          60
 RS_GRID| Real space fully replicated
 RS_GRID| Group size                                                           1

 BFGS| Use rational function optimization for step estimation:                NO
 BFGS| Use model Hessian for initial guess:                                  YES
 BFGS| Restart Hessian:                                                       NO
 BFGS| Trust radius:                                                       0.472

 *******************************************************************************
 ***                     STARTING GEOMETRY OPTIMIZATION                      ***
 ***                                   BFGS                                  ***
 *******************************************************************************

 Number of electrons:                                                       3208
 Number of occupied orbitals:                                               1604
 Number of molecular orbitals:                                              1704

 Number of orbital functions:                                               2716
 Number of independent orbital functions:                                   2716

 Extrapolation method: initial_guess

 Atomic guess: The first density matrix is obtained in terms of atomic orbitals
               and electronic configurations assigned to each atomic kind

 Guess for atomic kind: S

 Electronic structure
    Total number of core electrons                                         10.00
    Total number of valence electrons                                       6.00
    Total number of electrons                                              16.00
    Multiplicity                                                   not specified
    S   [  2.00  2.00] 2.00
    P   [  6.00] 4.00


 *******************************************************************************
                  Iteration          Convergence                     Energy [au]
 *******************************************************************************
                          1        0.660537E-01                  -9.999037742061
                          2        0.355079E-01                  -9.999866133925
                          3        0.643643E-04                 -10.000216348790
                          4        0.796885E-07                 -10.000216349869

 Energy components [Hartree]           Total Energy ::          -10.000216349869
                                        Band Energy ::           -2.121494693893
                                     Kinetic Energy ::            3.789396533726
                                   Potential Energy ::          -13.789612883596
                                      Virial (-V/T) ::            3.638999709021
                                        Core Energy ::          -16.443520246889
                                          XC Energy ::           -2.069152856162
                                     Coulomb Energy ::            8.512456753182
                       Total Pseudopotential Energy ::          -20.288997453216
                       Local Pseudopotential Energy ::          -22.511640900540
                    Nonlocal Pseudopotential Energy ::            2.222643447324
                                        Confinement ::            0.560806726004

 Orbital energies  State     L     Occupation   Energy[a.u.]          Energy[eV]

                       1     0          2.000      -0.602923          -16.406376

                       1     1          4.000      -0.228912           -6.229013


 Total Electron Density at R=0:                                         0.000007

 Guess for atomic kind: C

 Electronic structure
    Total number of core electrons                                          2.00
    Total number of valence electrons                                       4.00
    Total number of electrons                                               6.00
    Multiplicity                                                   not specified
    S   [  2.00] 2.00
    P      2.00


 *******************************************************************************
                  Iteration          Convergence                     Energy [au]
 *******************************************************************************
                          1        0.186766E-01                  -5.268668754005
                          2        0.653829E-02                  -5.268804464977
                          3        0.876072E-04                  -5.268823127995
                          4        0.591072E-08                  -5.268823131348

 Energy components [Hartree]           Total Energy ::           -5.268823131348
                                        Band Energy ::           -1.059831606115
                                     Kinetic Energy ::            3.570408314829
                                   Potential Energy ::           -8.839231446178
                                      Virial (-V/T) ::            2.475692040449
                                        Core Energy ::           -8.468185581767
                                          XC Energy ::           -1.456932885419
                                     Coulomb Energy ::            4.656295335838
                       Total Pseudopotential Energy ::          -12.068029384961
[...]
 COUNTER                                    TOTAL       BLAS       SMM       ACC
 flops     5 x     8 x     5               256000       0.0%    100.0%      0.0%
 flops     5 x     8 x    13              1331200       0.0%    100.0%      0.0%
 flops    13 x     8 x     5              1331200       0.0%    100.0%      0.0%
 flops    13 x     8 x    13              6922240       0.0%    100.0%      0.0%
 flops     5 x     5 x   136             14756000       0.0%    100.0%      0.0%
 flops     5 x     8 x     9             24422400       0.0%    100.0%      0.0%
 flops     9 x     8 x     5             24422400       0.0%    100.0%      0.0%
 flops     5 x    32 x     5             54272000       0.0%    100.0%      0.0%
 flops    13 x     5 x   136             61384960       0.0%    100.0%      0.0%
 flops     5 x    13 x   136             61384960       0.0%    100.0%      0.0%
 flops     5 x     5 x   128             83328000       0.0%    100.0%      0.0%
 flops     5 x     5 x   160             86800000       0.0%    100.0%      0.0%
 flops    13 x     8 x     9            104480064       0.0%    100.0%      0.0%
 flops     9 x     8 x    13            104480064       0.0%    100.0%      0.0%
 flops    13 x    32 x     5            282214400       0.0%    100.0%      0.0%
 flops     5 x    32 x    13            282214400       0.0%    100.0%      0.0%
 flops    13 x     5 x   128            346644480       0.0%    100.0%      0.0%
 flops     5 x    13 x   128            346644480       0.0%    100.0%      0.0%
 flops    13 x    13 x   136            359102016       0.0%    100.0%      0.0%
 flops    13 x     5 x   160            361088000       0.0%    100.0%      0.0%
 flops     5 x    13 x   160            361088000       0.0%    100.0%      0.0%
 flops     9 x     5 x   136           1123521840       0.0%    100.0%      0.0%
 flops     5 x     9 x   136           1128834000       0.0%    100.0%      0.0%
 flops    13 x    32 x    13           1467514880       0.0%    100.0%      0.0%
 flops    13 x    13 x   128           2027870208       0.0%    100.0%      0.0%
 flops    13 x    13 x   160           2112364800       0.0%    100.0%      0.0%
 flops     9 x     8 x     9           3500249760       0.0%    100.0%      0.0%
 flops    13 x     9 x   136           4809911184       0.0%    100.0%      0.0%
 flops     9 x    13 x   136           4824582048       0.0%    100.0%      0.0%
 flops     9 x    32 x     5           5177548800       0.0%    100.0%      0.0%
 flops     5 x    32 x     9           5177548800       0.0%    100.0%      0.0%
 flops     9 x     5 x   128           6344593920       0.0%    100.0%      0.0%
 flops     5 x     9 x   128           6374592000       0.0%    100.0%      0.0%
 flops     9 x     5 x   160           6608952000       0.0%    100.0%      0.0%
 flops     5 x     9 x   160           6640200000       0.0%    100.0%      0.0%
 flops    13 x    32 x     9          22149773568       0.0%    100.0%      0.0%
 flops     9 x    32 x    13          22149773568       0.0%    100.0%      0.0%
 flops    13 x     9 x   128          27161851392       0.0%    100.0%      0.0%
 flops     9 x    13 x   128          27244698624       0.0%    100.0%      0.0%
 flops    13 x     9 x   160          28293595200       0.0%    100.0%      0.0%
 flops     9 x    13 x   160          28379894400       0.0%    100.0%      0.0%
 flops     9 x     9 x   136         162093588048       0.0%    100.0%      0.0%
 flops     9 x    32 x     9         742052949120       0.0%    100.0%      0.0%
 flops     9 x     9 x   128         915352026624       0.0%    100.0%      0.0%
 flops     9 x     9 x   160         953491694400       0.0%    100.0%      0.0%
 flops inhomo. stacks                           0       0.0%      0.0%      0.0%
 flops total                         2.988657E+12       0.0%    100.0%      0.0%
 flops max/rank                    127.634913E+09       0.0%    100.0%      0.0%
 matmuls inhomo. stacks                         0       0.0%      0.0%      0.0%
 matmuls total                          250176324       0.0%    100.0%      0.0%
 number of processed stacks                684856       0.0%    100.0%      0.0%
 average stack size                                     0.0     365.3       0.0
 marketing flops                     6.261089E+12
 -------------------------------------------------------------------------------
 # multiplications                            257
 max memory usage/rank               1.698533E+09
 # max total images/rank                        3
 # max 3D layers                                1
 # MPI messages exchanged                  117192
 MPI messages size (bytes):
  total size                        78.137336E+09
  min size                         460.800000E+03
  max size                           1.009336E+06
  average size                     666.746312E+03
 MPI breakdown and total messages size (bytes):
             size <=      128                   0                        0
       128 < size <=     8192                   0                        0
      8192 < size <=    32768                   0                        0
     32768 < size <=   131072                   0                        0
    131072 < size <=  4194304              117192              78137232592
   4194304 < size <= 16777216                   0                        0
  16777216 < size                               0                        0
 -------------------------------------------------------------------------------

 *** WARNING in dbcsr_mm.F:290 :: Using a non-square number of MPI ranks ***
 *** might lead to poor performance. Used ranks: 24 Suggested: 25 49     ***

 -------------------------------------------------------------------------------
 -                                                                             -
 -                      DBCSR MESSAGE PASSING PERFORMANCE                      -
 -                                                                             -
 -------------------------------------------------------------------------------
 ROUTINE             CALLS      AVE VOLUME [Bytes]
 MP_Bcast               46                     12.
 MP_Allreduce         1729                      9.
 MP_Alltoall          6808                 692424.
 MP_ISend            12256                 297508.
 MP_IRecv            11902                 300551.
 -------------------------------------------------------------------------------

 -------------------------------------------------------------------------------
 -                                                                             -
 -                                DBM STATISTICS                               -
 -                                                                             -
 -------------------------------------------------------------------------------
    M  x    N  x    K                                          COUNT     PERCENT
 -------------------------------------------------------------------------------

 -------------------------------------------------------------------------------
 -                                                                             -
 -                                GRID STATISTICS                              -
 -                                                                             -
 -------------------------------------------------------------------------------
 LP    KERNEL             BACKEND                              COUNT     PERCENT
 4     collocate ortho    REF                               50861692      48.61%
 4     integrate ortho    REF                               48208894      46.07%
 5     integrate ortho    REF                                2446751       2.34%
 3     collocate ortho    REF                                 818021       0.78%
 3     integrate ortho    REF                                 776725       0.74%
 0     collocate general  REF                                 712800       0.68%
 0     integrate general  REF                                 633600       0.61%
 2     collocate ortho    REF                                  72868       0.07%
 1     integrate general  REF                                  72000       0.07%
 2     integrate ortho    REF                                  38218       0.04%
 1     collocate ortho    REF                                    440       0.00%
 -------------------------------------------------------------------------------

 MEMORY| Estimated peak process memory [MiB]                                1620

 -------------------------------------------------------------------------------
 ----                             MULTIGRID INFO                            ----
 -------------------------------------------------------------------------------
 count for grid        1:         234171          cutoff [a.u.]          200.00
 count for grid        2:        1364213          cutoff [a.u.]           66.67
 count for grid        3:         968471          cutoff [a.u.]           22.22
 count for grid        4:        1508878          cutoff [a.u.]            7.41
 total gridlevel count  :        4075733

 -------------------------------------------------------------------------------
 -                                                                             -
 -                         MESSAGE PASSING PERFORMANCE                         -
 -                                                                             -
 -------------------------------------------------------------------------------

 ROUTINE             CALLS      AVE VOLUME [Bytes]
 MP_Group                4
 MP_Bcast              369                1745795.
 MP_Allreduce         3509                    910.
 MP_Sync               231
 MP_Alltoall          2961               15342378.
 MP_ISendRecv        20102                 107400.
 MP_Wait             48529
 MP_comm_split          10
 MP_ISend            25676                 490893.
 MP_IRecv            25676                 490934.
 MP_Recv               906                 570605.
 MP_Write_All           33                1092525.
 -------------------------------------------------------------------------------


 -------------------------------------------------------------------------------
 -                                                                             -
 -                           R E F E R E N C E S                               -
 -                                                                             -
 -------------------------------------------------------------------------------
 
 CP2K version 2022.1 (Development Version), the CP2K developers group (2022).
 CP2K is freely available from https://www.cp2k.org/ .

 Kuehne,Thomas D.; Iannuzzi,Marcella; Del Ben,Mauro;
 Rybkin,Vladimir V.; Seewald,Patrick; Stein,Frederick; Laino,Teodoro;
 Khaliullin,Rustam Z.; Schuett,Ole; Schiffmann,Florian; Golze,Dorothea;
 Wilhelm,Jan; Chulkov,Sergey; Bani-Hashemian,Mohammad Hossein;
 Weber,Valery; Borstnik,Urban; Taillefumier,Mathieu;
 Jakobovits,Alice Shoshana; Lazzaro,Alfio; Pabst,Hans; Mueller,Tiziano;
 Schade,Robert; Guidon,Manuel; Andermatt,Samuel; Holmberg,Nico;
 Schenter,Gregory K.; Hehn,Anna; Bussy,Augustin; Belleflamme,Fabian;
 Tabacchi,Gloria; Gloess,Andreas; Lass,Michael; Bethune,Iain;
 Mundy,Christopher J.; Plessl,Christian; Watkins,Matt;
 VandeVondele,Joost; Krack,Matthias; Hutter,Juerg. 
 The Journal of Chemical Physics, 152 (19), (2020). 
 CP2K: An electronic structure and molecular dynamics software package -
 Quickstep: Efficient and accurate electronic structure calculations.
 https://doi.org/10.1063/5.0007045

 Schuett, Ole; Messmer, Peter; Hutter, Juerg; VandeVondele, Joost. 
 Electronic Structure Calculations on Graphics Processing Units, John
 Wiley & Sons, Ltd, 173-190 (2016). 
 GPU-Accelerated Sparse Matrix-Matrix Multiplication for
 Linear Scaling Density Functional Theory.
 https://doi.org/10.1002/9781118670712.ch8

 Heinecke, A; Henry, G; Hutchinson, M; Pabst, H. 
 Proceedings of Intl. Supercomputing Conference, 981-991 (2016). 
 LIBXSMM: Accelerating Small Matrix Multiplications
 by Runtime Code Generation.
 https://doi.org/10.1109/SC.2016.83

 Borstnik, U; VandeVondele, J; Weber, V; Hutter, J. 
 PARALLEL COMPUTING, 40 (5-6), 47-58 (2014). 
 Sparse matrix multiplication: The distributed block-compressed sparse
 row library.
 https://doi.org/10.1016/j.parco.2014.03.012

 Hutter, J; Iannuzzi, M; Schiffmann, F; VandeVondele, J. 
 WIREs Comput Mol Sci., 4 (1), 15-25 (2014). 
 CP2K: atomistic simulations of condensed matter systems.
 https://doi.org/10.1002/wcms.1159

 VandeVondele, J; Hutter, J. 
 JOURNAL OF CHEMICAL PHYSICS, 127 (11), 114105 (2007). 
 Gaussian basis sets for accurate calculations on molecular systems in
 gas and condensed phases.
 https://doi.org/10.1063/1.2770708

 Kuhne, TD; Krack, M; Mohamed, FR; Parrinello, M. 
 PHYSICAL REVIEW LETTERS, 98 (6), 066401 (2007). 
 Efficient and accurate Car-Parrinello-like approach to
 Born-Oppenheimer molecular dynamics.
 https://doi.org/10.1103/PhysRevLett.98.066401

 Krack, M. 
 THEORETICAL CHEMISTRY ACCOUNTS, 114 (1-3), 145-152 (2005). 
 Pseudopotentials for H to Kr optimized for gradient-corrected
 exchange-correlation functionals.
 https://doi.org/10.1007/s00214-005-0655-y

 VandeVondele, J; Krack, M; Mohamed, F; Parrinello, M; Chassaing, T;
 Hutter, J. COMPUTER PHYSICS COMMUNICATIONS, 167 (2), 103-128 (2005). 
 QUICKSTEP: Fast and accurate density functional calculations using a
 mixed Gaussian and plane waves approach.
 https://doi.org/10.1016/j.cpc.2004.12.014

 Frigo, M; Johnson, SG. 
 PROCEEDINGS OF THE IEEE, 93 (2), 216-231 (2005). 
 The design and implementation of FFTW3.
 https://doi.org/10.1109/JPROC.2004.840301

 Kolafa, J. 
 JOURNAL OF COMPUTATIONAL CHEMISTRY, 25 (3), 335-342 (2004). 
 Time-reversible always stable predictor-corrector method for
 molecular dynamics of polarizable molecules.
 https://doi.org/10.1002/jcc.10385

 Hartwigsen, C; Goedecker, S; Hutter, J. 
 PHYSICAL REVIEW B, 58 (7), 3641-3662 (1998). 
 Relativistic separable dual-space Gaussian pseudopotentials from H to Rn.
 https://doi.org/10.1103/PhysRevB.58.3641

 Lippert, G; Hutter, J; Parrinello, M. 
 MOLECULAR PHYSICS, 92 (3), 477-487 (1997). 
 A hybrid Gaussian and plane wave density functional scheme.
 https://doi.org/10.1080/002689797170220

 Goedecker, S; Teter, M; Hutter, J. 
 PHYSICAL REVIEW B, 54 (3), 1703-1710 (1996). 
 Separable dual-space Gaussian pseudopotentials.
 https://doi.org/10.1103/PhysRevB.54.1703


 -------------------------------------------------------------------------------
 -                                                                             -
 -                                T I M I N G                                  -
 -                                                                             -
 -------------------------------------------------------------------------------
 SUBROUTINE                       CALLS  ASD         SELF TIME        TOTAL TIME
                                MAXIMUM       AVERAGE  MAXIMUM  AVERAGE  MAXIMUM
 CP2K                                 1  1.0    0.223    0.230  540.012  540.013
 cp_geo_opt                           1  2.0    0.012    0.012  539.434  539.438
 geoopt_bfgs                          1  3.0    0.026    0.035  539.422  539.426
 cp_eval_at                          11  4.0    0.002    0.012  537.875  537.879
 qs_energies                         11  5.9    0.001    0.001  509.664  509.682
 qs_forces                           10  5.0    0.002    0.002  503.200  503.201
 scf_env_do_scf                      11  6.9    0.001    0.002  455.531  456.154
 scf_env_do_scf_inner_loop          197  7.9    0.008    0.069  455.492  456.114
 qs_scf_new_mos                     197  8.9    0.003    0.004  158.199  158.359
 eigensolver                        197  9.9    0.014    0.020  141.803  141.838
 rebuild_ks_matrix                  207  9.8    0.001    0.001  139.924  139.941
 qs_ks_build_kohn_sham_matrix       207 10.8    0.030    0.034  139.924  139.940
 qs_ks_update_qs_env                197  8.9    0.001    0.002  129.739  129.767
 qs_rho_update_rho_low              208  9.0    0.001    0.001  115.358  115.376
 calculate_rho_elec                 208 10.0    0.442    0.466  115.357  115.375
 cp_fm_syevd                        217 10.7    0.003    0.004  112.181  112.232
 cp_fm_syevd_base                   217 11.8  111.713  111.952  111.713  111.952
 sum_up_and_integrate               207 11.8    1.534    1.612  104.875  104.937
 integrate_v_rspace                 207 12.8    0.010    0.012  103.341  103.527
 pw_transfer                       2796 12.7    0.247    0.286   88.223   90.399
 fft_wrap_pw1pw2                   2382 13.7    0.038    0.043   85.221   87.331
 fft_wrap_pw1pw2_200               1071 14.0    7.944    8.604   79.629   81.632
 grid_integrate_task_list           207 13.8   65.312   66.008   65.312   66.008
 grid_collocate_task_list           208 11.0   64.404   65.336   64.404   65.336
 fft3d_ps                          2382 15.7   37.600   40.750   57.586   60.511
 gspace_mixing                      186  8.9    0.395    0.415   57.120   57.120
 density_rs2pw                      208 11.0    0.016    0.020   49.227   51.288
 broyden_mixing                     186  9.9   42.485   42.654   42.763   42.831
 rs_pw_transfer                    1791 13.1    0.040    0.046   33.828   36.689
 potential_pw2rs                    207 13.8    0.040    0.044   35.923   36.108
 cp_fm_cholesky_restore             591 10.9   31.114   31.528   31.114   31.528
 scf_post_calculation_gpw            11  6.9    0.001    0.001   25.289   25.386
 init_scf_run                        11  6.9    0.001    0.001   20.695   20.705
 scf_env_initial_rho_setup           11  7.9    0.000    0.001   19.719   19.729
 build_core_hamiltonian_matrix_      10  6.0    0.000    0.000   16.172   17.772
 wfi_extrapolate                     11  8.9    0.001    0.004   17.685   17.685
 mp_waitany                       25676 15.1   12.395   16.737   12.395   16.737
 rs_pw_transfer_RS2PW_200           252 12.7    4.991    5.782   12.359   14.926
 rs_pw_transfer_PW2RS_200           228 15.4    6.357    6.497   13.664   13.947
 cp_dbcsr_plus_fm_fm_t_native       217 10.8    0.007    0.009   13.628   13.824
 build_core_ppnl_forces              10  7.0   12.422   13.779   12.422   13.779
 dbcsr_multiply_generic             257 11.9    0.025    0.027   13.249   13.424
 calculate_dm_sparse                207  9.9    0.029    0.035   13.134   13.322
 x_to_yz                           1244 17.0    6.788    7.482   11.544   12.400
 qs_vxc_create                      207 11.8    0.005    0.007    9.346   11.122
 xc_vxc_pw_create                   207 12.8    0.446    0.492    9.341   11.118
 mp_sum_d                          2439  9.9    4.692   10.988    4.692   10.988
 mp_alltoall_z22v                  2382 17.7    9.017   10.966    9.017   10.966
 pw_scatter_p                      1244 16.0   10.519   10.836   10.519   10.836
 -------------------------------------------------------------------------------

 The number of warnings for this run is : 1
 
 -------------------------------------------------------------------------------
  **** **** ******  **  PROGRAM ENDED AT                 2022-10-20 13:52:21.898
 ***** ** ***  *** **   PROGRAM RAN ON                     cn1138.scarf.rl.ac.uk
 **    ****   ******    PROGRAM RAN BY                                 scarf1157
 ***** **    ** ** **   PROGRAM PROCESS ID                                  9528
  **** **  *******  **  PROGRAM STOPPED IN /work4/scd/scarf1157/work/testing/cp2
                                           k-smeagol/bdt/hollow-site/em-cp2k/geo
                                           _opt/dzp-frozen-au-bulk
