 DBCSR| CPU Multiplication driver                                           XSMM
 DBCSR| Multrec recursion limit                                              512
 DBCSR| Multiplication stack size                                           1000
 DBCSR| Maximum elements for images                                    UNLIMITED
 DBCSR| Multiplicative factor virtual images                                   1
 DBCSR| Use multiplication densification                                       T
 DBCSR| Multiplication size stacks                                             3
 DBCSR| Use memory pool for CPU allocation                                     F
 DBCSR| Number of 3D layers                                               SINGLE
 DBCSR| Use MPI memory allocation                                              F
 DBCSR| Use RMA algorithm                                                      F
 DBCSR| Use Communication thread                                               T
 DBCSR| Communication thread load                                             87
 DBCSR| MPI: My node id                                                        0
 DBCSR| MPI: Number of nodes                                                 240
 DBCSR| OMP: Current number of threads                                         1
 DBCSR| OMP: Max number of threads                                             1
 DBCSR| Split modifier for TAS multiplication algorithm                  1.0E+00


  **** **** ******  **  PROGRAM STARTED AT               2023-03-16 10:18:33.076
 ***** ** ***  *** **   PROGRAM STARTED ON                 cn1000.scarf.rl.ac.uk
 **    ****   ******    PROGRAM STARTED BY                             scarf1157
 ***** **    ** ** **   PROGRAM PROCESS ID                                 43296
  **** **  *******  **  PROGRAM STARTED IN /work4/scd/scarf1157/work/testing/cp2
                                           k-smeagol/bdt/cp2k/hollow-site/transp
                                           ort-cp2k/5-4/geometry-ordered/3x3-4/s
                                           z/bulk_layers-4/transmission/exp/dzvp
                                           /sergey/kpoints_bulk-2-2-100_em-2-2-1
                                           _hlb-t-auto_iv

 CP2K| version string:                 CP2K version 2022.1 (Development Version)
 CP2K| source code revision number:                                  git:e136ce5
 CP2K| cp2kflags: omp fftw3 libxc parallel mpi3 scalapack xsmm spglib           
 CP2K| is freely available from                            https://www.cp2k.org/
 CP2K| Program compiled at                          Thu  9 Mar 17:17:16 GMT 2023
 CP2K| Program compiled on                                 cn1108.scarf.rl.ac.uk
 CP2K| Program compiled for                                                local
 CP2K| Data directory path    /home/vol07/scarf1157/code/smeagol/cp2k-smeagol/sc
 CP2K| Input file name                                                V_-4.4.inp

 GLOBAL| Force Environment number                                              1
 GLOBAL| Basis set file name                                        BASIS_MOLOPT
 GLOBAL| Potential file name                                      GTH_POTENTIALS
 GLOBAL| MM Potential file name                                     MM_POTENTIAL
 GLOBAL| Coordinate file name                                             em.xyz
 GLOBAL| Method name                                                        CP2K
 GLOBAL| Project name                                                     V--4.4
 GLOBAL| Run type                                                         ENERGY
 GLOBAL| FFT library                                                       FFTW3
 GLOBAL| Diagonalization library                                       ScaLAPACK
 GLOBAL| Orthonormality check for eigenvectors                          DISABLED
 GLOBAL| Matrix multiplication library                                 ScaLAPACK
 GLOBAL| All-to-all communication in single precision                          F
 GLOBAL| FFTs using library dependent lengths                                  T
 GLOBAL| Grid backend                                                       AUTO
 GLOBAL| Global print level                                               MEDIUM
 GLOBAL| MPI I/O enabled                                                       T
 GLOBAL| Total number of message passing processes                           240
 GLOBAL| Number of threads for this process                                    1
 GLOBAL| This output is from process                                           0
 GLOBAL| Stack size for threads created by OpenMP (OMP_STACKSIZE)        default
 GLOBAL| CPU model name                         AMD EPYC 7502P 32-Core Processor
 GLOBAL| CPUID                                                              1002

 MEMORY| system memory details [Kb]
 MEMORY|                        rank 0           min           max       average
 MEMORY| MemTotal            263897776     263896980     263897776     263897081
 MEMORY| MemFree             109785340     109785340     208450328     169614238
 MEMORY| Buffers                  2476          2476          2568          2544
 MEMORY| Cached              137976016      44821240     137976016      78996914
 MEMORY| Slab                  1741320        979436       1741320       1304973
 MEMORY| SReclaimable          1210740        531528       1210740        789027
 MEMORY| MemLikelyFree       248974572     248386956     253805660     249402724


 *** Fundamental physical constants (SI units) ***

 *** Literature: B. J. Mohr and B. N. Taylor,
 ***             CODATA recommended values of the fundamental physical
 ***             constants: 2006, Web Version 5.1
 ***             http://physics.nist.gov/constants

 Speed of light in vacuum [m/s]                             2.99792458000000E+08
 Magnetic constant or permeability of vacuum [N/A**2]       1.25663706143592E-06
 Electric constant or permittivity of vacuum [F/m]          8.85418781762039E-12
 Planck constant (h) [J*s]                                  6.62606896000000E-34
 Planck constant (h-bar) [J*s]                              1.05457162825177E-34
 Elementary charge [C]                                      1.60217648700000E-19
 Electron mass [kg]                                         9.10938215000000E-31
 Electron g factor [ ]                                     -2.00231930436220E+00
 Proton mass [kg]                                           1.67262163700000E-27
 Fine-structure constant                                    7.29735253760000E-03
 Rydberg constant [1/m]                                     1.09737315685270E+07
 Avogadro constant [1/mol]                                  6.02214179000000E+23
 Boltzmann constant [J/K]                                   1.38065040000000E-23
 Atomic mass unit [kg]                                      1.66053878200000E-27
 Bohr radius [m]                                            5.29177208590000E-11

 *** Conversion factors ***

 [u] -> [a.u.]                                              1.82288848426455E+03
 [Angstrom] -> [Bohr] = [a.u.]                              1.88972613288564E+00
 [a.u.] = [Bohr] -> [Angstrom]                              5.29177208590000E-01
 [a.u.] -> [s]                                              2.41888432650478E-17
 [a.u.] -> [fs]                                             2.41888432650478E-02
 [a.u.] -> [J]                                              4.35974393937059E-18
 [a.u.] -> [N]                                              8.23872205491840E-08
 [a.u.] -> [K]                                              3.15774647902944E+05
 [a.u.] -> [kJ/mol]                                         2.62549961709828E+03
 [a.u.] -> [kcal/mol]                                       6.27509468713739E+02
 [a.u.] -> [Pa]                                             2.94210107994716E+13
 [a.u.] -> [bar]                                            2.94210107994716E+08
 [a.u.] -> [atm]                                            2.90362800883016E+08
 [a.u.] -> [eV]                                             2.72113838565563E+01
 [a.u.] -> [Hz]                                             6.57968392072181E+15
 [a.u.] -> [1/cm] (wave numbers)                            2.19474631370540E+05
 [a.u./Bohr**2] -> [1/cm]                                   5.14048714338585E+03
 

 CELL_TOP| Volume [angstrom^3]:                                      2357.480286
 CELL_TOP| Vector a [angstrom     8.336     0.000     0.000   |a| =     8.336000
 CELL_TOP| Vector b [angstrom     0.000     8.336     0.000   |b| =     8.336000
 CELL_TOP| Vector c [angstrom     0.000     0.000    33.926   |c| =    33.926000
 CELL_TOP| Angle (b,c), alpha [degree]:                                90.000000
 CELL_TOP| Angle (a,c), beta  [degree]:                                90.000000
 CELL_TOP| Angle (a,b), gamma [degree]:                                90.000000
 CELL_TOP| Numerically orthorhombic:                                         YES
 CELL_TOP| Periodicity                                                       XYZ

 GENERATE|  Preliminary Number of Bonds generated:                             0
 GENERATE|  Achieved consistency in connectivity generation.

 CELL| Volume [angstrom^3]:                                          2357.480286
 CELL| Vector a [angstrom]:       8.336     0.000     0.000   |a| =     8.336000
 CELL| Vector b [angstrom]:       0.000     8.336     0.000   |b| =     8.336000
 CELL| Vector c [angstrom]:       0.000     0.000    33.926   |c| =    33.926000
 CELL| Angle (b,c), alpha [degree]:                                    90.000000
 CELL| Angle (a,c), beta  [degree]:                                    90.000000
 CELL| Angle (a,b), gamma [degree]:                                    90.000000
 CELL| Numerically orthorhombic:                                             YES
 CELL| Periodicity                                                           XYZ

 CELL_REF| Volume [angstrom^3]:                                      2357.480286
 CELL_REF| Vector a [angstrom     8.336     0.000     0.000   |a| =     8.336000
 CELL_REF| Vector b [angstrom     0.000     8.336     0.000   |b| =     8.336000
 CELL_REF| Vector c [angstrom     0.000     0.000    33.926   |c| =    33.926000
 CELL_REF| Angle (b,c), alpha [degree]:                                90.000000
 CELL_REF| Angle (a,c), beta  [degree]:                                90.000000
 CELL_REF| Angle (a,b), gamma [degree]:                                90.000000
 CELL_REF| Numerically orthorhombic:                                         YES
 CELL_REF| Periodicity                                                       XYZ

 *******************************************************************************
                                    Kpoints
 *******************************************************************************
 BRILLOUIN| K-point scheme                                        Monkhorst-Pack
 BRILLOUIN| K-Point grid                                             2    2    1
 BRILLOUIN| Accuracy in Symmetry determination                      0.100000E-07
 BRILLOUIN| K-Point point group symmetrization                               OFF
 BRILLOUIN| Wavefunction type                                            COMPLEX
 BRILLOUIN| Use full k-point grid     
 BRILLOUIN| List of Kpoints [2 Pi/Bohr]                                        4
 BRILLOUIN| Number           Weight            X              Y              Z
 BRILLOUIN|     1           0.25000       -0.25000       -0.25000        0.00000
 BRILLOUIN|     2           0.25000       -0.25000        0.25000        0.00000
 BRILLOUIN|     3           0.25000        0.25000       -0.25000        0.00000
 BRILLOUIN|     4           0.25000        0.25000        0.25000        0.00000
 *******************************************************************************

 *******************************************************************************
 *******************************************************************************
 **                                                                           **
 **     #####                         ##              ##                      **
 **    ##   ##            ##          ##              ##                      **
 **   ##     ##                       ##            ######                    **
 **   ##     ##  ##   ##  ##   #####  ##  ##   ####   ##    #####    #####    **
 **   ##     ##  ##   ##  ##  ##      ## ##   ##      ##   ##   ##  ##   ##   **
 **   ##  ## ##  ##   ##  ##  ##      ####     ###    ##   ######   ######    **
 **    ##  ###   ##   ##  ##  ##      ## ##      ##   ##   ##       ##        **
 **     #######   #####   ##   #####  ##  ##  ####    ##    #####   ##        **
 **           ##                                                    ##        **
 **                                                                           **
 **                                                ... make the atoms dance   **
 **                                                                           **
 **            Copyright (C) by CP2K developers group (2000-2022)             **
 **                      J. Chem. Phys. 152, 194103 (2020)                    **
 **                                                                           **
 *******************************************************************************

 DFT| Spin restricted Kohn-Sham (RKS) calculation                            RKS
 DFT| Multiplicity                                                             1
 DFT| Number of spin states                                                    1
 DFT| Charge                                                                   0
 DFT| Self-interaction correction (SIC)                                       NO
 DFT| Cutoffs: density                                              1.000000E-10
 DFT|          gradient                                             1.000000E-10
 DFT|          tau                                                  1.000000E-10
 DFT|          cutoff_smoothing_range                               0.000000E+00
 DFT| XC density smoothing                                                  NONE
 DFT| XC derivatives                                                          PW

 FUNCTIONAL| PADE:
 FUNCTIONAL| S. Goedecker, M. Teter and J. Hutter, Phys. Rev. B 54, 1703 (1996) 


 QS| Method:                                                                 GPW
 QS| Density plane wave grid type                        NON-SPHERICAL FULLSPACE
 QS| Number of grid levels:                                                    4
 QS| Density cutoff [a.u.]:                                                200.0
 QS| Multi grid cutoff [a.u.]: 1) grid level                               200.0
 QS|                           2) grid level                                66.7
 QS|                           3) grid level                                22.2
 QS|                           4) grid level                                 7.4
 QS| Grid level progression factor:                                          3.0
 QS| Relative density cutoff [a.u.]:                                        20.0
 QS| Interaction thresholds: eps_pgf_orb:                                1.0E-05
 QS|                         eps_filter_matrix:                          0.0E+00
 QS|                         eps_core_charge:                            1.0E-12
 QS|                         eps_rho_gspace:                             1.0E-10
 QS|                         eps_rho_rspace:                             1.0E-10
 QS|                         eps_gvg_rspace:                             1.0E-05
 QS|                         eps_ppl:                                    1.0E-02
 QS|                         eps_ppnl:                                   1.0E-07


 ATOMIC KIND INFORMATION

  1. Atomic kind: Au                                    Number of atoms:     104

     Orbital Basis Set                                         SZV-MOLOPT-SR-GTH

       Number of orbital shell sets:                                           1
       Number of orbital shells:                                               3
       Number of primitive Cartesian functions:                                5
       Number of Cartesian basis functions:                                   10
       Number of spherical basis functions:                                    9
       Norm type:                                                              2

       Normalised Cartesian orbitals:

                        Set   Shell   Orbital            Exponent    Coefficient

                          1       1    2s                2.950008       0.074626
                                                         1.563057      -0.007898
                                                         0.666664      -0.297688
                                                         0.251083       0.136809
                                                         0.081714       0.088198

                          1       2    3px               2.950008       0.148824
                                                         1.563057       0.025430
                                                         0.666664      -0.123003
                                                         0.251083       0.033648
                                                         0.081714       0.059008
                          1       2    3py               2.950008       0.148824
                                                         1.563057       0.025430
                                                         0.666664      -0.123003
                                                         0.251083       0.033648
                                                         0.081714       0.059008
                          1       2    3pz               2.950008       0.148824
                                                         1.563057       0.025430
                                                         0.666664      -0.123003
                                                         0.251083       0.033648
                                                         0.081714       0.059008

                          1       3    4dx2              2.950008      -0.139595
                                                         1.563057       1.319655
                                                         0.666664       0.377081
                                                         0.251083       0.046872
                                                         0.081714       0.001393
                          1       3    4dxy              2.950008      -0.241786
                                                         1.563057       2.285709
                                                         0.666664       0.653124
                                                         0.251083       0.081185
                                                         0.081714       0.002412
                          1       3    4dxz              2.950008      -0.241786
                                                         1.563057       2.285709
                                                         0.666664       0.653124
                                                         0.251083       0.081185
                                                         0.081714       0.002412
                          1       3    4dy2              2.950008      -0.139595
                                                         1.563057       1.319655
                                                         0.666664       0.377081
                                                         0.251083       0.046872
                                                         0.081714       0.001393
                          1       3    4dyz              2.950008      -0.241786
                                                         1.563057       2.285709
                                                         0.666664       0.653124
                                                         0.251083       0.081185
                                                         0.081714       0.002412
                          1       3    4dz2              2.950008      -0.139595
                                                         1.563057       1.319655
                                                         0.666664       0.377081
                                                         0.251083       0.046872
                                                         0.081714       0.001393

       Atomic covalent radius [Angstrom]:                                  1.340

       Atomic van der Waals radius [Angstrom]:                             1.660

     GTH Potential information for                                  GTH-PADE-q11

       Description:                       Goedecker-Teter-Hutter pseudopotential
                                           Goedecker et al., PRB 54, 1703 (1996)
                                          Hartwigsen et al., PRB 58, 3641 (1998)
                                                      Krack, TCA 114, 145 (2005)

       Gaussian exponent of the core charge distribution:               1.436369
       Electronic configuration (s p d ...):                           1   0  10

       Parameters of the local part of the GTH pseudopotential:

                          rloc        C1          C2          C3          C4
                        0.590000   11.604428

       Parameters of the non-local part of the GTH pseudopotential:

                   l      r(l)      h(i,j,l)

                   0    0.521180    2.538614   -1.046137
                                   -1.046137    2.701113
                   1    0.630613    0.394853   -0.869592
                                   -0.869592    2.057831
                   2    0.440706   -4.719070    0.727771
                                    0.727771   -1.650429

  2. Atomic kind: S                                     Number of atoms:       2

     Orbital Basis Set                                        DZVP-MOLOPT-SR-GTH

       Number of orbital shell sets:                                           1
       Number of orbital shells:                                               5
       Number of primitive Cartesian functions:                                4
       Number of Cartesian basis functions:                                   14
       Number of spherical basis functions:                                   13
       Norm type:                                                              2

       Normalised Cartesian orbitals:

                        Set   Shell   Orbital            Exponent    Coefficient

                          1       1    2s                2.215855       0.308496
                                                         1.131471       0.138505
                                                         0.410168      -0.373736
                                                         0.140587      -0.040370

                          1       2    3s                2.215855      -0.329528
                                                         1.131471      -0.517509
                                                         0.410168       0.787368
                                                         0.140587      -0.322786

                          1       3    3px               2.215855       0.420434
                                                         1.131471      -0.319283
                                                         0.410168      -0.335323
                                                         0.140587      -0.030976
                          1       3    3py               2.215855       0.420434
                                                         1.131471      -0.319283
                                                         0.410168      -0.335323
                                                         0.140587      -0.030976
                          1       3    3pz               2.215855       0.420434
                                                         1.131471      -0.319283
                                                         0.410168      -0.335323
                                                         0.140587      -0.030976

                          1       4    4px               2.215855       0.241296
                                                         1.131471      -0.170582
                                                         0.410168      -0.186977
                                                         0.140587       0.153509
                          1       4    4py               2.215855       0.241296
                                                         1.131471      -0.170582
                                                         0.410168      -0.186977
                                                         0.140587       0.153509
                          1       4    4pz               2.215855       0.241296
                                                         1.131471      -0.170582
                                                         0.410168      -0.186977
                                                         0.140587       0.153509

                          1       5    4dx2              2.215855       0.573559
                                                         1.131471       0.544926
                                                         0.410168       0.228284
                                                         0.140587       0.008811
                          1       5    4dxy              2.215855       0.993434
                                                         1.131471       0.943840
                                                         0.410168       0.395400
                                                         0.140587       0.015260
                          1       5    4dxz              2.215855       0.993434
                                                         1.131471       0.943840
                                                         0.410168       0.395400
                                                         0.140587       0.015260
                          1       5    4dy2              2.215855       0.573559
                                                         1.131471       0.544926
                                                         0.410168       0.228284
                                                         0.140587       0.008811
                          1       5    4dyz              2.215855       0.993434
                                                         1.131471       0.943840
                                                         0.410168       0.395400
                                                         0.140587       0.015260
                          1       5    4dz2              2.215855       0.573559
                                                         1.131471       0.544926
                                                         0.410168       0.228284
                                                         0.140587       0.008811

       Atomic covalent radius [Angstrom]:                                  1.020

       Atomic van der Waals radius [Angstrom]:                             1.800

     GTH Potential information for                                   GTH-PADE-q6

       Description:                       Goedecker-Teter-Hutter pseudopotential
                                           Goedecker et al., PRB 54, 1703 (1996)
                                          Hartwigsen et al., PRB 58, 3641 (1998)
                                                      Krack, TCA 114, 145 (2005)

       Gaussian exponent of the core charge distribution:               2.834467
       Electronic configuration (s p d ...):                               2   4

       Parameters of the local part of the GTH pseudopotential:

                          rloc        C1          C2          C3          C4
                        0.420000   -6.554492

       Parameters of the non-local part of the GTH pseudopotential:

                   l      r(l)      h(i,j,l)

                   0    0.361757    7.905303   -1.731881
                                   -1.731881    4.471698
                   1    0.405285    3.866579

  3. Atomic kind: C                                     Number of atoms:       6

     Orbital Basis Set                                        DZVP-MOLOPT-SR-GTH

       Number of orbital shell sets:                                           1
       Number of orbital shells:                                               5
       Number of primitive Cartesian functions:                                5
       Number of Cartesian basis functions:                                   14
       Number of spherical basis functions:                                   13
       Norm type:                                                              2

       Normalised Cartesian orbitals:

                        Set   Shell   Orbital            Exponent    Coefficient

                          1       1    2s                5.605331       0.322515
                                                         2.113016       0.213043
                                                         0.769911      -0.209686
                                                         0.348157      -0.219794
                                                         0.128212      -0.022789

                          1       2    3s                5.605331       0.552234
                                                         2.113016       0.082072
                                                         0.769911       0.007843
                                                         0.348157       0.136893
                                                         0.128212       0.074283

                          1       3    3px               5.605331      -0.703879
                                                         2.113016      -0.642521
                                                         0.769911      -0.374851
                                                         0.348157      -0.139743
                                                         0.128212      -0.027849
                          1       3    3py               5.605331      -0.703879
                                                         2.113016      -0.642521
                                                         0.769911      -0.374851
                                                         0.348157      -0.139743
                                                         0.128212      -0.027849
                          1       3    3pz               5.605331      -0.703879
                                                         2.113016      -0.642521
                                                         0.769911      -0.374851
                                                         0.348157      -0.139743
                                                         0.128212      -0.027849

                          1       4    4px               5.605331      -0.480376
                                                         2.113016      -0.552894
                                                         0.769911      -0.316145
                                                         0.348157       0.210505
                                                         0.128212       0.076095
                          1       4    4py               5.605331      -0.480376
                                                         2.113016      -0.552894
                                                         0.769911      -0.316145
                                                         0.348157       0.210505
                                                         0.128212       0.076095
                          1       4    4pz               5.605331      -0.480376
                                                         2.113016      -0.552894
                                                         0.769911      -0.316145
                                                         0.348157       0.210505
                                                         0.128212       0.076095

                          1       5    4dx2              5.605331       0.640026
                                                         2.113016       0.274300
                                                         0.769911       0.446711
                                                         0.348157       0.028674
                                                         0.128212       0.029790
                          1       5    4dxy              5.605331       1.108557
                                                         2.113016       0.475102
                                                         0.769911       0.773726
                                                         0.348157       0.049666
                                                         0.128212       0.051599
                          1       5    4dxz              5.605331       1.108557
                                                         2.113016       0.475102
                                                         0.769911       0.773726
                                                         0.348157       0.049666
                                                         0.128212       0.051599
                          1       5    4dy2              5.605331       0.640026
                                                         2.113016       0.274300
                                                         0.769911       0.446711
                                                         0.348157       0.028674
                                                         0.128212       0.029790
                          1       5    4dyz              5.605331       1.108557
                                                         2.113016       0.475102
                                                         0.769911       0.773726
                                                         0.348157       0.049666
                                                         0.128212       0.051599
                          1       5    4dz2              5.605331       0.640026
                                                         2.113016       0.274300
                                                         0.769911       0.446711
                                                         0.348157       0.028674
                                                         0.128212       0.029790

       Atomic covalent radius [Angstrom]:                                  0.770

       Atomic van der Waals radius [Angstrom]:                             1.700

     GTH Potential information for                                   GTH-PADE-q4

       Description:                       Goedecker-Teter-Hutter pseudopotential
                                           Goedecker et al., PRB 54, 1703 (1996)
                                          Hartwigsen et al., PRB 58, 3641 (1998)
                                                      Krack, TCA 114, 145 (2005)

       Gaussian exponent of the core charge distribution:               4.109048
       Electronic configuration (s p d ...):                               2   2

       Parameters of the local part of the GTH pseudopotential:

                          rloc        C1          C2          C3          C4
                        0.348830   -8.513771    1.228432

       Parameters of the non-local part of the GTH pseudopotential:

                   l      r(l)      h(i,j,l)

                   0    0.304553    9.522842
                   1    0.232677

  4. Atomic kind: H                                     Number of atoms:       4

     Orbital Basis Set                                        DZVP-MOLOPT-SR-GTH

       Number of orbital shell sets:                                           1
       Number of orbital shells:                                               3
       Number of primitive Cartesian functions:                                5
       Number of Cartesian basis functions:                                    5
       Number of spherical basis functions:                                    5
       Norm type:                                                              2

       Normalised Cartesian orbitals:

                        Set   Shell   Orbital            Exponent    Coefficient

                          1       1    2s               10.068468      -0.133023
                                                         2.680223      -0.177618
                                                         0.791502      -0.258419
                                                         0.239116      -0.107525
                                                         0.082193      -0.014019

                          1       2    3s               10.068468       0.344673
                                                         2.680223       1.819821
                                                         0.791502      -0.999069
                                                         0.239116       0.017430
                                                         0.082193       0.082660

                          1       3    3px              10.068468       0.155326
                                                         2.680223       0.367157
                                                         0.791502       0.311480
                                                         0.239116       0.080105
                                                         0.082193       0.033440
                          1       3    3py              10.068468       0.155326
                                                         2.680223       0.367157
                                                         0.791502       0.311480
                                                         0.239116       0.080105
                                                         0.082193       0.033440
                          1       3    3pz              10.068468       0.155326
                                                         2.680223       0.367157
                                                         0.791502       0.311480
                                                         0.239116       0.080105
                                                         0.082193       0.033440

       Atomic covalent radius [Angstrom]:                                  0.320

       Atomic van der Waals radius [Angstrom]:                             1.090

     GTH Potential information for                                   GTH-PADE-q1

       Description:                       Goedecker-Teter-Hutter pseudopotential
                                           Goedecker et al., PRB 54, 1703 (1996)
                                          Hartwigsen et al., PRB 58, 3641 (1998)
                                                      Krack, TCA 114, 145 (2005)

       Gaussian exponent of the core charge distribution:              12.500000
       Electronic configuration (s p d ...):                                   1

       Parameters of the local part of the GTH pseudopotential:

                          rloc        C1          C2          C3          C4
                        0.200000   -4.180237    0.725075


 MOLECULE KIND INFORMATION


 All atoms are their own molecule, skipping detailed information


 TOTAL NUMBERS AND MAXIMUM NUMBERS

  Total number of            - Atomic kinds:                                   4
                             - Atoms:                                        116
                             - Shell sets:                                   116
                             - Shells:                                       364
                             - Primitive Cartesian functions:                578
                             - Cartesian basis functions:                   1172
                             - Spherical basis functions:                   1060

  Maximum angular momentum of- Orbital basis functions:                        2
                             - Local part of the GTH pseudopotential:          2
                             - Non-local part of the GTH pseudopotential:      4


 MODULE QUICKSTEP: ATOMIC COORDINATES IN ANGSTROM

   Atom Kind Element         X             Y             Z       Z(eff)     Mass
      1    1 Au   79      0.000000      0.000000      0.000000  11.0000 196.9666
      2    1 Au   79      0.000000      4.168000      0.000000  11.0000 196.9666
      3    1 Au   79      2.084000      2.084000      0.000000  11.0000 196.9666
      4    1 Au   79      2.084000      6.252000      0.000000  11.0000 196.9666
      5    1 Au   79      4.168000      0.000000      0.000000  11.0000 196.9666
      6    1 Au   79      4.168000      4.168000      0.000000  11.0000 196.9666
      7    1 Au   79      6.252000      2.084000      0.000000  11.0000 196.9666
      8    1 Au   79      6.252000      6.252000      0.000000  11.0000 196.9666
      9    1 Au   79      0.000000      2.084000      2.084000  11.0000 196.9666
     10    1 Au   79      0.000000      6.252000      2.084000  11.0000 196.9666
     11    1 Au   79      2.084000      0.000000      2.084000  11.0000 196.9666
     12    1 Au   79      2.084000      4.168000      2.084000  11.0000 196.9666
     13    1 Au   79      4.168000      2.084000      2.084000  11.0000 196.9666
     14    1 Au   79      4.168000      6.252000      2.084000  11.0000 196.9666
     15    1 Au   79      6.252000      0.000000      2.084000  11.0000 196.9666
     16    1 Au   79      6.252000      4.168000      2.084000  11.0000 196.9666
     17    1 Au   79      0.000000      0.000000      4.168000  11.0000 196.9666
     18    1 Au   79      0.000000      4.168000      4.168000  11.0000 196.9666
     19    1 Au   79      2.084000      2.084000      4.168000  11.0000 196.9666
     20    1 Au   79      2.084000      6.252000      4.168000  11.0000 196.9666
     21    1 Au   79      4.168000      0.000000      4.168000  11.0000 196.9666
     22    1 Au   79      4.168000      4.168000      4.168000  11.0000 196.9666
     23    1 Au   79      6.252000      2.084000      4.168000  11.0000 196.9666
     24    1 Au   79      6.252000      6.252000      4.168000  11.0000 196.9666
     25    1 Au   79      0.000000      2.084000      6.252000  11.0000 196.9666
     26    1 Au   79      0.000000      6.252000      6.252000  11.0000 196.9666
     27    1 Au   79      2.084000      0.000000      6.252000  11.0000 196.9666
     28    1 Au   79      2.084000      4.168000      6.252000  11.0000 196.9666
     29    1 Au   79      4.168000      2.084000      6.252000  11.0000 196.9666
     30    1 Au   79      4.168000      6.252000      6.252000  11.0000 196.9666
     31    1 Au   79      6.252000      0.000000      6.252000  11.0000 196.9666
     32    1 Au   79      6.252000      4.168000      6.252000  11.0000 196.9666
     33    1 Au   79      0.000000      0.000000      8.336000  11.0000 196.9666
     34    1 Au   79      0.000000      4.168000      8.336000  11.0000 196.9666
     35    1 Au   79      2.084000      2.084000      8.336000  11.0000 196.9666
     36    1 Au   79      2.084000      6.252000      8.336000  11.0000 196.9666
     37    1 Au   79      4.168000      0.000000      8.336000  11.0000 196.9666
     38    1 Au   79      4.168000      4.168000      8.336000  11.0000 196.9666
     39    1 Au   79      6.252000      2.084000      8.336000  11.0000 196.9666
     40    1 Au   79      6.252000      6.252000      8.336000  11.0000 196.9666
     41    1 Au   79      0.000000      2.084000     10.420000  11.0000 196.9666
     42    1 Au   79      0.000000      6.252000     10.420000  11.0000 196.9666
     43    1 Au   79      2.084000      0.000000     10.420000  11.0000 196.9666
     44    1 Au   79      2.084000      4.168000     10.420000  11.0000 196.9666
     45    1 Au   79      4.168000      2.084000     10.420000  11.0000 196.9666
     46    1 Au   79      4.168000      6.252000     10.420000  11.0000 196.9666
     47    1 Au   79      6.252000      0.000000     10.420000  11.0000 196.9666
     48    1 Au   79      6.252000      4.168000     10.420000  11.0000 196.9666
     49    1 Au   79      0.000000      0.000000     12.504000  11.0000 196.9666
     50    1 Au   79      0.000000      4.168000     12.504000  11.0000 196.9666
     51    1 Au   79      2.084000      2.084000     12.504000  11.0000 196.9666
     52    1 Au   79      2.084000      6.252000     12.504000  11.0000 196.9666
     53    1 Au   79      4.168000      0.000000     12.504000  11.0000 196.9666
     54    1 Au   79      4.168000      4.168000     12.504000  11.0000 196.9666
     55    1 Au   79      6.252000      2.084000     12.504000  11.0000 196.9666
     56    1 Au   79      6.252000      6.252000     12.504000  11.0000 196.9666
     57    2 S    16      4.171000      2.086000     13.790000   6.0000  32.0650
     58    3 C     6      4.175000      2.089000     15.551000   4.0000  12.0107
     59    4 H     1      2.073000      2.116000     15.734000   1.0000   1.0079
     60    4 H     1      6.269000      2.116000     15.740000   1.0000   1.0079
     61    3 C     6      2.965000      2.095000     16.251000   4.0000  12.0107
     62    3 C     6      5.373000      2.095000     16.251000   4.0000  12.0107
     63    3 C     6      2.959000      2.074000     17.674000   4.0000  12.0107
     64    3 C     6      5.367000      2.074000     17.674000   4.0000  12.0107
     65    4 H     1      2.063000      2.053000     18.186000   1.0000   1.0079
     66    4 H     1      6.259000      2.053000     18.192000   1.0000   1.0079
     67    3 C     6      4.157000      2.080000     18.375000   4.0000  12.0107
     68    2 S    16      4.171000      2.086000     20.136000   6.0000  32.0650
     69    1 Au   79      0.000000      0.000000     21.422000  11.0000 196.9666
     70    1 Au   79      0.000000      4.168000     21.422000  11.0000 196.9666
     71    1 Au   79      2.084000      2.084000     21.422000  11.0000 196.9666
     72    1 Au   79      2.084000      6.252000     21.422000  11.0000 196.9666
     73    1 Au   79      4.168000      0.000000     21.422000  11.0000 196.9666
     74    1 Au   79      4.168000      4.168000     21.422000  11.0000 196.9666
     75    1 Au   79      6.252000      2.084000     21.422000  11.0000 196.9666
     76    1 Au   79      6.252000      6.252000     21.422000  11.0000 196.9666
     77    1 Au   79      0.000000      2.084000     23.506000  11.0000 196.9666
     78    1 Au   79      0.000000      6.252000     23.506000  11.0000 196.9666
     79    1 Au   79      2.084000      0.000000     23.506000  11.0000 196.9666
     80    1 Au   79      2.084000      4.168000     23.506000  11.0000 196.9666
     81    1 Au   79      4.168000      2.084000     23.506000  11.0000 196.9666
     82    1 Au   79      4.168000      6.252000     23.506000  11.0000 196.9666
     83    1 Au   79      6.252000      0.000000     23.506000  11.0000 196.9666
     84    1 Au   79      6.252000      4.168000     23.506000  11.0000 196.9666
     85    1 Au   79      0.000000      0.000000     25.590000  11.0000 196.9666
     86    1 Au   79      0.000000      4.168000     25.590000  11.0000 196.9666
     87    1 Au   79      2.084000      2.084000     25.590000  11.0000 196.9666
     88    1 Au   79      2.084000      6.252000     25.590000  11.0000 196.9666
     89    1 Au   79      4.168000      0.000000     25.590000  11.0000 196.9666
     90    1 Au   79      4.168000      4.168000     25.590000  11.0000 196.9666
     91    1 Au   79      6.252000      2.084000     25.590000  11.0000 196.9666
     92    1 Au   79      6.252000      6.252000     25.590000  11.0000 196.9666
     93    1 Au   79      0.000000      2.084000     27.674000  11.0000 196.9666
     94    1 Au   79      0.000000      6.252000     27.674000  11.0000 196.9666
     95    1 Au   79      2.084000      0.000000     27.674000  11.0000 196.9666
     96    1 Au   79      2.084000      4.168000     27.674000  11.0000 196.9666
     97    1 Au   79      4.168000      2.084000     27.674000  11.0000 196.9666
     98    1 Au   79      4.168000      6.252000     27.674000  11.0000 196.9666
     99    1 Au   79      6.252000      0.000000     27.674000  11.0000 196.9666
    100    1 Au   79      6.252000      4.168000     27.674000  11.0000 196.9666
    101    1 Au   79      0.000000      0.000000     29.758000  11.0000 196.9666
    102    1 Au   79      0.000000      4.168000     29.758000  11.0000 196.9666
    103    1 Au   79      2.084000      2.084000     29.758000  11.0000 196.9666
    104    1 Au   79      2.084000      6.252000     29.758000  11.0000 196.9666
    105    1 Au   79      4.168000      0.000000     29.758000  11.0000 196.9666
    106    1 Au   79      4.168000      4.168000     29.758000  11.0000 196.9666
    107    1 Au   79      6.252000      2.084000     29.758000  11.0000 196.9666
    108    1 Au   79      6.252000      6.252000     29.758000  11.0000 196.9666
    109    1 Au   79      0.000000      2.084000     31.842000  11.0000 196.9666
    110    1 Au   79      0.000000      6.252000     31.842000  11.0000 196.9666
    111    1 Au   79      2.084000      0.000000     31.842000  11.0000 196.9666
    112    1 Au   79      2.084000      4.168000     31.842000  11.0000 196.9666
    113    1 Au   79      4.168000      2.084000     31.842000  11.0000 196.9666
    114    1 Au   79      4.168000      6.252000     31.842000  11.0000 196.9666
    115    1 Au   79      6.252000      0.000000     31.842000  11.0000 196.9666
    116    1 Au   79      6.252000      4.168000     31.842000  11.0000 196.9666



 SCF PARAMETERS         Density guess:                                   RESTART
                        --------------------------------------------------------
                        max_scf:                                             500
                        max_scf_history:                                       0
                        max_diis:                                              4
                        --------------------------------------------------------
                        eps_scf:                                        1.00E-07
                        eps_scf_history:                                0.00E+00
                        eps_diis:                                       1.00E-01
                        eps_eigval:                                     1.00E-05
                        --------------------------------------------------------
                        level_shift [a.u.]:                             0.000000
                        added MOs                                       100    0
                        --------------------------------------------------------
                        Mixing method:                            BROYDEN_MIXING
                                                charge density mixing in g-space
                        --------------------------------------------------------
                        Smear method:                                FERMI_DIRAC
                        Electronic temperature [K]:                        293.0
                        Electronic temperature [a.u.]:                  9.28E-04
                        Accuracy threshold:                             1.00E-10
                        --------------------------------------------------------
                        No outer SCF

 PW_GRID| Information for grid number                                          1
 PW_GRID| Grid distributed over                                   240 processors
 PW_GRID| Real space group dimensions                                    12   20
 PW_GRID| the grid is blocked:                                               YES
 PW_GRID| Cutoff [a.u.]                                                    200.0
 PW_GRID| spherical cutoff:                                                   NO
 PW_GRID|   Bounds   1            -52      52                Points:         105
 PW_GRID|   Bounds   2            -52      52                Points:         105
 PW_GRID|   Bounds   3           -210     209                Points:         420
 PW_GRID| Volume element (a.u.^3)  0.3436E-02     Volume (a.u.^3)     15909.0657
 PW_GRID| Grid span                                                    FULLSPACE
 PW_GRID|   Distribution                         Average         Max         Min
 PW_GRID|   G-Vectors                            19293.8       19845       17640
 PW_GRID|   G-Rays                                 183.8         189         168
 PW_GRID|   Real Space Points                    19293.8       19845       17640

 PW_GRID| Information for grid number                                          2
 PW_GRID| Number of the reference grid                                         1
 PW_GRID| Grid distributed over                                   240 processors
 PW_GRID| Real space group dimensions                                    12   20
 PW_GRID| the grid is blocked:                                                NO
 PW_GRID| Cutoff [a.u.]                                                     66.7
 PW_GRID| spherical cutoff:                                                   NO
 PW_GRID|   Bounds   1            -30      29                Points:          60
 PW_GRID|   Bounds   2            -30      29                Points:          60
 PW_GRID|   Bounds   3           -120     119                Points:         240
 PW_GRID| Volume element (a.u.^3)  0.1841E-01     Volume (a.u.^3)     15909.0657
 PW_GRID| Grid span                                                    FULLSPACE
 PW_GRID|   Distribution                         Average         Max         Min
 PW_GRID|   G-Vectors                             3600.0       11340           0
 PW_GRID|   G-Rays                                  60.0         189           0
 PW_GRID|   Real Space Points                     3600.0        3600        3600

 PW_GRID| Information for grid number                                          3
 PW_GRID| Number of the reference grid                                         1
 PW_GRID| Grid distributed over                                   240 processors
 PW_GRID| Real space group dimensions                                    12   20
 PW_GRID| the grid is blocked:                                                NO
 PW_GRID| Cutoff [a.u.]                                                     22.2
 PW_GRID| spherical cutoff:                                                   NO
 PW_GRID|   Bounds   1            -16      16                Points:          33
 PW_GRID|   Bounds   2            -16      16                Points:          33
 PW_GRID|   Bounds   3            -70      69                Points:         140
 PW_GRID| Volume element (a.u.^3)  0.1043         Volume (a.u.^3)     15909.0657
 PW_GRID| Grid span                                                    FULLSPACE
 PW_GRID|   Distribution                         Average         Max         Min
 PW_GRID|   G-Vectors                              635.2        6237           0
 PW_GRID|   G-Rays                                  19.2         189           0
 PW_GRID|   Real Space Points                      635.2         840         280

 PW_GRID| Information for grid number                                          4
 PW_GRID| Number of the reference grid                                         1
 PW_GRID| Grid distributed over                                   240 processors
 PW_GRID| Real space group dimensions                                    12   20
 PW_GRID| the grid is blocked:                                                NO
 PW_GRID| Cutoff [a.u.]                                                      7.4
 PW_GRID| spherical cutoff:                                                   NO
 PW_GRID|   Bounds   1            -10       9                Points:          20
 PW_GRID|   Bounds   2            -10       9                Points:          20
 PW_GRID|   Bounds   3            -40      39                Points:          80
 PW_GRID| Volume element (a.u.^3)  0.4972         Volume (a.u.^3)     15909.0657
 PW_GRID| Grid span                                                    FULLSPACE
 PW_GRID|   Distribution                         Average         Max         Min
 PW_GRID|   G-Vectors                              133.3        3780           0
 PW_GRID|   G-Rays                                   6.7         189           0
 PW_GRID|   Real Space Points                      133.3         160          80

 POISSON| Solver                                                        PERIODIC
 POISSON| Periodicity                                                        XYZ

 RS_GRID| Information for grid number                                          1
 RS_GRID|   Bounds   1            -52      52                Points:         105
 RS_GRID|   Bounds   2            -52      52                Points:         105
 RS_GRID|   Bounds   3           -210     209                Points:         420
 RS_GRID| Real space distribution over                                  8 groups
 RS_GRID| Real space distribution along direction                              2
 RS_GRID| Border size                                                         30
 RS_GRID| Real space distribution over                                 30 groups
 RS_GRID| Real space distribution along direction                              3
 RS_GRID| Border size                                                         30
 RS_GRID|   Distribution                         Average         Max         Min
 RS_GRID|   Planes                                  73.1          74          73
 RS_GRID|   Distribution                         Average         Max         Min
 RS_GRID|   Planes                                  74.0          74          74

 RS_GRID| Information for grid number                                          2
 RS_GRID|   Bounds   1            -30      29                Points:          60
 RS_GRID|   Bounds   2            -30      29                Points:          60
 RS_GRID|   Bounds   3           -120     119                Points:         240
 RS_GRID| Real space distribution over                                  8 groups
 RS_GRID| Real space distribution along direction                              2
 RS_GRID| Border size                                                         22
 RS_GRID| Real space distribution over                                 30 groups
 RS_GRID| Real space distribution along direction                              3
 RS_GRID| Border size                                                         22
 RS_GRID|   Distribution                         Average         Max         Min
 RS_GRID|   Planes                                  51.5          52          51
 RS_GRID|   Distribution                         Average         Max         Min
 RS_GRID|   Planes                                  52.0          52          52

 RS_GRID| Information for grid number                                          3
 RS_GRID|   Bounds   1            -16      16                Points:          33
 RS_GRID|   Bounds   2            -16      16                Points:          33
 RS_GRID|   Bounds   3            -70      69                Points:         140
 RS_GRID| Real space fully replicated
 RS_GRID| Group size                                                           1

 RS_GRID| Information for grid number                                          4
 RS_GRID|   Bounds   1            -10       9                Points:          20
 RS_GRID|   Bounds   2            -10       9                Points:          20
 RS_GRID|   Bounds   3            -40      39                Points:          80
 RS_GRID| Real space fully replicated
 RS_GRID| Group size                                                           1

 KPOINTS| Number of kpoint groups                                              1
 KPOINTS| Size of each kpoint group                                          240
 KPOINTS| Number of kpoints per group                                          4

 Number of electrons:                                                       1184
 Number of occupied orbitals:                                                592
 Number of molecular orbitals:                                               692

 Number of orbital functions:                                               1060
 Number of independent orbital functions:                                   1060

 Extrapolation method: initial_guess


 SCF WAVEFUNCTION OPTIMIZATION

  Step     Update method      Time    Convergence         Total energy    Change
  ------------------------------------------------------------------------------
 SMEAGOL DEBUG| Number of electrons in the unit cell =      1183.9999999944
     1 NoMix/SMGL  0.30E+00  121.4    14.22116840     -3518.2829478965 -3.52E+03
 SMEAGOL DEBUG| Number of electrons in the unit cell =      1103.3756562417
     2 Broy./SMGL  0.30E+00   66.2    20.43964054     -3616.6197343408 -9.83E+01
 SMEAGOL DEBUG| Number of electrons in the unit cell =      1096.3525307662
     3 Broy./SMGL  0.30E+00   65.0    13.13793511     -3629.5855952323 -1.30E+01
 SMEAGOL DEBUG| Number of electrons in the unit cell =      1130.7298568100
     4 Broy./SMGL  0.30E+00   65.8    21.43517426     -3312.5315072779  3.17E+02
 SMEAGOL DEBUG| Number of electrons in the unit cell =      1130.3498010786
     5 Broy./SMGL  0.30E+00   65.1    21.50974310     -3553.7002105838 -2.41E+02
 SMEAGOL DEBUG| Number of electrons in the unit cell =      1144.9065941766
     6 Broy./SMGL  0.30E+00   65.9     2.42495986     -3428.2599544321  1.25E+02
 SMEAGOL DEBUG| Number of electrons in the unit cell =      1166.7238469605
     7 Broy./SMGL  0.30E+00   64.7     8.71687352     -3433.1818486015 -4.92E+00
 SMEAGOL DEBUG| Number of electrons in the unit cell =      1167.6626821995
     8 Broy./SMGL  0.30E+00   65.6     0.68678371     -3482.9665533830 -4.98E+01
 SMEAGOL DEBUG| Number of electrons in the unit cell =      1176.8629680230
     9 Broy./SMGL  0.30E+00   65.5     2.75359121     -3479.4061310791  3.56E+00
 SMEAGOL DEBUG| Number of electrons in the unit cell =      1180.5828791148
    10 Broy./SMGL  0.30E+00   65.4     1.07644865     -3489.1536367681 -9.75E+00
 SMEAGOL DEBUG| Number of electrons in the unit cell =      1198.9417946814
    11 Broy./SMGL  0.30E+00   65.7     4.26515105     -3508.4456097446 -1.93E+01
 SMEAGOL DEBUG| Number of electrons in the unit cell =      1186.8385602406
    12 Broy./SMGL  0.30E+00   65.1     5.82066782     -3672.4379698417 -1.64E+02
 SMEAGOL DEBUG| Number of electrons in the unit cell =      1192.6576252559
    13 Broy./SMGL  0.30E+00   66.0     6.95521209     -3500.7873741132  1.72E+02
 SMEAGOL DEBUG| Number of electrons in the unit cell =      1185.2356655209
    14 Broy./SMGL  0.30E+00   66.4     6.70442469     -3575.7302235695 -7.49E+01
 SMEAGOL DEBUG| Number of electrons in the unit cell =      1184.2475345643
    15 Broy./SMGL  0.30E+00   64.6     0.19835565     -3514.7132935673  6.10E+01
 SMEAGOL DEBUG| Number of electrons in the unit cell =      1184.8074682449
    16 Broy./SMGL  0.30E+00   64.6     0.17933751     -3508.7081750589  6.01E+00
 SMEAGOL DEBUG| Number of electrons in the unit cell =      1183.8187644986
    17 Broy./SMGL  0.30E+00   65.3     0.08375812     -3509.3344476472 -6.26E-01
 SMEAGOL DEBUG| Number of electrons in the unit cell =      1184.0228288212
    18 Broy./SMGL  0.30E+00   64.5     0.12675033     -3506.9188260528  2.42E+00
 SMEAGOL DEBUG| Number of electrons in the unit cell =      1184.0408805647
    19 Broy./SMGL  0.30E+00   65.8     0.08352397     -3509.2221705884 -2.30E+00
 SMEAGOL DEBUG| Number of electrons in the unit cell =      1184.2809316955
    20 Broy./SMGL  0.30E+00   66.7     0.15185989     -3508.6931231250  5.29E-01
 SMEAGOL DEBUG| Number of electrons in the unit cell =      1185.1957977339
    21 Broy./SMGL  0.30E+00   64.7     0.46577115     -3510.4845179979 -1.79E+00
 SMEAGOL DEBUG| Number of electrons in the unit cell =      1185.0466904531
    22 Broy./SMGL  0.30E+00   64.4     0.03881168     -3517.4436030223 -6.96E+00
 SMEAGOL DEBUG| Number of electrons in the unit cell =      1186.1049732788
    23 Broy./SMGL  0.30E+00   64.6    17.11791880     -3515.4460626976  2.00E+00
 SMEAGOL DEBUG| Number of electrons in the unit cell =      1180.0214312701
    24 Broy./SMGL  0.30E+00   65.8    14.95569106     -3648.0707752158 -1.33E+02
 SMEAGOL DEBUG| Number of electrons in the unit cell =      1181.0762008686
    25 Broy./SMGL  0.30E+00   93.0     0.78467202     -3493.4186929025  1.55E+02
 SMEAGOL DEBUG| Number of electrons in the unit cell =      1181.5920262436
    26 Broy./SMGL  0.30E+00   66.2     0.43007990     -3501.5434605490 -8.12E+00
 SMEAGOL DEBUG| Number of electrons in the unit cell =      1182.3040457657
    27 Broy./SMGL  0.30E+00   64.6     0.45634092     -3501.6287553152 -8.53E-02
 SMEAGOL DEBUG| Number of electrons in the unit cell =      1182.0385293559
    28 Broy./SMGL  0.30E+00   65.6     0.11152187     -3507.3748229096 -5.75E+00
 SMEAGOL DEBUG| Number of electrons in the unit cell =      1182.4531539637
    29 Broy./SMGL  0.30E+00   65.8     0.17027659     -3503.1333300894  4.24E+00
 SMEAGOL DEBUG| Number of electrons in the unit cell =      1182.8037868417
    30 Broy./SMGL  0.30E+00   65.7     0.23658469     -3507.3670899346 -4.23E+00
 SMEAGOL DEBUG| Number of electrons in the unit cell =      1183.0154305906
    31 Broy./SMGL  0.30E+00   65.8     0.15019892     -3508.9750878447 -1.61E+00
 SMEAGOL DEBUG| Number of electrons in the unit cell =      1183.6879770731
    32 Broy./SMGL  0.30E+00   64.8     0.42949103     -3509.0729773649 -9.79E-02
 SMEAGOL DEBUG| Number of electrons in the unit cell =      1185.9975078237
    33 Broy./SMGL  0.30E+00   65.4     5.54211069     -3512.9596732852 -3.89E+00
 SMEAGOL DEBUG| Number of electrons in the unit cell =      1182.2021825473
    34 Broy./SMGL  0.30E+00   64.6     4.64082119     -3555.3652528732 -4.24E+01
 SMEAGOL DEBUG| Number of electrons in the unit cell =      1183.4476180657
    35 Broy./SMGL  0.30E+00   65.0     0.74169669     -3507.5766562018  4.78E+01
 SMEAGOL DEBUG| Number of electrons in the unit cell =      1183.7490739922
    36 Broy./SMGL  0.30E+00   64.9     0.22578976     -3513.1591349106 -5.58E+00
 SMEAGOL DEBUG| Number of electrons in the unit cell =      1183.7115524441
    37 Broy./SMGL  0.30E+00   69.3     0.02914507     -3515.5871361167 -2.43E+00
 SMEAGOL DEBUG| Number of electrons in the unit cell =      1183.9154209978
    38 Broy./SMGL  0.30E+00   64.5     0.17690378     -3515.0364905121  5.51E-01
 SMEAGOL DEBUG| Number of electrons in the unit cell =      1183.9287054941
    39 Broy./SMGL  0.30E+00   66.1     0.00689075     -3515.5776129181 -5.41E-01
 SMEAGOL DEBUG| Number of electrons in the unit cell =      1183.9574124163
    40 Broy./SMGL  0.30E+00   65.0     0.04558382     -3515.6263231881 -4.87E-02
 SMEAGOL DEBUG| Number of electrons in the unit cell =      1184.0671109264
    41 Broy./SMGL  0.30E+00   64.5     0.10555466     -3515.8739827755 -2.48E-01
 SMEAGOL DEBUG| Number of electrons in the unit cell =      1184.1240839949
    42 Broy./SMGL  0.30E+00   65.5     0.06473811     -3517.2132391065 -1.34E+00
 SMEAGOL DEBUG| Number of electrons in the unit cell =      1184.3133475625
    43 Broy./SMGL  0.30E+00   64.8     9.93083530     -3518.3193266011 -1.11E+00
 SMEAGOL DEBUG| Number of electrons in the unit cell =      1179.2606184018
    44 Broy./SMGL  0.30E+00   66.1     7.06163270     -3615.2954911262 -9.70E+01
 SMEAGOL DEBUG| Number of electrons in the unit cell =      1179.5526844264
    45 Broy./SMGL  0.30E+00   64.9     0.99649880     -3495.1972624149  1.20E+02
 SMEAGOL DEBUG| Number of electrons in the unit cell =      1179.8528117735
    46 Broy./SMGL  0.30E+00   65.2     0.22231364     -3493.6530390565  1.54E+00
 SMEAGOL DEBUG| Number of electrons in the unit cell =      1180.0015050014
    47 Broy./SMGL  0.30E+00   64.5     0.19985558     -3499.9728886311 -6.32E+00
 SMEAGOL DEBUG| Number of electrons in the unit cell =      1180.2114774469
    48 Broy./SMGL  0.30E+00   68.0     0.23388526     -3499.0566693345  9.16E-01
 SMEAGOL DEBUG| Number of electrons in the unit cell =      1180.5119231689
    49 Broy./SMGL  0.30E+00   64.7     0.25361974     -3500.6421968243 -1.59E+00
 SMEAGOL DEBUG| Number of electrons in the unit cell =      1181.1798840710
    50 Broy./SMGL  0.30E+00   65.9     0.43872656     -3500.3130491138  3.29E-01
 SMEAGOL DEBUG| Number of electrons in the unit cell =      1181.2099584860
    51 Broy./SMGL  0.30E+00   65.1     0.02110051     -3503.3695182696 -3.06E+00
 SMEAGOL DEBUG| Number of electrons in the unit cell =      1182.1830756928
    52 Broy./SMGL  0.30E+00   64.6     0.48237625     -3502.6159882831  7.54E-01
 SMEAGOL DEBUG| Number of electrons in the unit cell =      1186.3914314676
    53 Broy./SMGL  0.30E+00   65.3     5.85297991     -3505.4415135005 -2.83E+00
 SMEAGOL DEBUG| Number of electrons in the unit cell =      1183.6218068889
    54 Broy./SMGL  0.30E+00   64.7     6.77811112     -3594.5690492645 -8.91E+01
 SMEAGOL DEBUG| Number of electrons in the unit cell =      1183.5571742236
    55 Broy./SMGL  0.30E+00   65.7     0.03946098     -3514.2140016381  8.04E+01
 SMEAGOL DEBUG| Number of electrons in the unit cell =      1183.5733447438
    56 Broy./SMGL  0.30E+00   64.5     0.17833787     -3512.5662837540  1.65E+00
 SMEAGOL DEBUG| Number of electrons in the unit cell =      1184.0608019621
    57 Broy./SMGL  0.30E+00   65.9     0.28254274     -3509.6268133101  2.94E+00
 SMEAGOL DEBUG| Number of electrons in the unit cell =      1183.8898359956
    58 Broy./SMGL  0.30E+00   66.0     0.09484441     -3513.4430500039 -3.82E+00
 SMEAGOL DEBUG| Number of electrons in the unit cell =      1184.0893236635
    59 Broy./SMGL  0.30E+00   65.2     0.07879952     -3512.9524674361  4.91E-01
 SMEAGOL DEBUG| Number of electrons in the unit cell =      1184.0935768254
    60 Broy./SMGL  0.30E+00   64.4     0.03512498     -3513.9286662207 -9.76E-01
 SMEAGOL DEBUG| Number of electrons in the unit cell =      1184.0716982978
    61 Broy./SMGL  0.30E+00   65.2     0.03975937     -3514.8701688583 -9.42E-01
 SMEAGOL DEBUG| Number of electrons in the unit cell =      1183.9738927409
    62 Broy./SMGL  0.30E+00   65.7     0.01503585     -3516.0794246865 -1.21E+00
 SMEAGOL DEBUG| Number of electrons in the unit cell =      1183.9844829458
    63 Broy./SMGL  0.30E+00   64.3     0.08299769     -3516.2048370340 -1.25E-01
 SMEAGOL DEBUG| Number of electrons in the unit cell =      1183.9243751177
    64 Broy./SMGL  0.30E+00   64.9     0.04520243     -3519.5363543383 -3.33E+00
 SMEAGOL DEBUG| Number of electrons in the unit cell =      1183.9407022357
    65 Broy./SMGL  0.30E+00   64.4     0.00659505     -3517.7691941077  1.77E+00
 SMEAGOL DEBUG| Number of electrons in the unit cell =      1183.9414912329
    66 Broy./SMGL  0.30E+00   65.5     0.01576300     -3517.7682194109  9.75E-04
 SMEAGOL DEBUG| Number of electrons in the unit cell =      1183.9626170550
    67 Broy./SMGL  0.30E+00   65.5     0.00482783     -3518.2934747270 -5.25E-01
 SMEAGOL DEBUG| Number of electrons in the unit cell =      1183.9602947240
    68 Broy./SMGL  0.30E+00   65.6     0.00638370     -3518.2162028675  7.73E-02
 SMEAGOL DEBUG| Number of electrons in the unit cell =      1183.9682155735
    69 Broy./SMGL  0.30E+00   93.9     0.00265749     -3518.0547363045  1.61E-01
 SMEAGOL DEBUG| Number of electrons in the unit cell =      1183.9758245247
    70 Broy./SMGL  0.30E+00   70.9     0.00200935     -3518.1527203517 -9.80E-02
 SMEAGOL DEBUG| Number of electrons in the unit cell =      1183.9812698111
    71 Broy./SMGL  0.30E+00   65.4     0.00200917     -3518.1565805953 -3.86E-03
 SMEAGOL DEBUG| Number of electrons in the unit cell =      1183.9775298972
    72 Broy./SMGL  0.30E+00   64.4     0.00200884     -3518.1864410978 -2.99E-02
 SMEAGOL DEBUG| Number of electrons in the unit cell =      1183.9739909789
    73 Broy./SMGL  0.30E+00   65.4     0.00182846     -3518.1770063042  9.43E-03
 SMEAGOL DEBUG| Number of electrons in the unit cell =      1183.9702249923
    74 Broy./SMGL  0.30E+00   64.9     0.00144735     -3518.1795213022 -2.51E-03
 SMEAGOL DEBUG| Number of electrons in the unit cell =      1183.9690914359
    75 Broy./SMGL  0.30E+00   65.1     0.00314402     -3518.1697868027  9.73E-03
 SMEAGOL DEBUG| Number of electrons in the unit cell =      1183.9679329532
    76 Broy./SMGL  0.30E+00   64.5     0.00314390     -3518.1713188741 -1.53E-03
 SMEAGOL DEBUG| Number of electrons in the unit cell =      1183.9685277490
    77 Broy./SMGL  0.30E+00   65.9     0.00244921     -3518.1702170651  1.10E-03
 SMEAGOL DEBUG| Number of electrons in the unit cell =      1183.9686605102
    78 Broy./SMGL  0.30E+00   64.6     0.00244942     -3518.1690622865  1.15E-03
 SMEAGOL DEBUG| Number of electrons in the unit cell =      1183.9695230135
    79 Broy./SMGL  0.30E+00   65.0     0.00176044     -3518.1688210091  2.41E-04
 SMEAGOL DEBUG| Number of electrons in the unit cell =      1183.9705500878
    80 Broy./SMGL  0.30E+00   64.2     0.00102094     -3518.1685536602  2.67E-04
 SMEAGOL DEBUG| Number of electrons in the unit cell =      1183.9705982608
    81 Broy./SMGL  0.30E+00   65.3     0.00102106     -3518.1689957074 -4.42E-04
 SMEAGOL DEBUG| Number of electrons in the unit cell =      1183.9705926014
    82 Broy./SMGL  0.30E+00   64.8     0.00176042     -3518.1690487133 -5.30E-05
 SMEAGOL DEBUG| Number of electrons in the unit cell =      1183.9706133700
    83 Broy./SMGL  0.30E+00   64.3     0.00013924     -3518.1689288989  1.20E-04
 SMEAGOL DEBUG| Number of electrons in the unit cell =      1183.9706030465
    84 Broy./SMGL  0.30E+00   65.5     0.00092829     -3518.1690702612 -1.41E-04
 SMEAGOL DEBUG| Number of electrons in the unit cell =      1183.9706061577
    85 Broy./SMGL  0.30E+00   64.4     0.00012360     -3518.1689561226  1.14E-04
 SMEAGOL DEBUG| Number of electrons in the unit cell =      1183.9705860167
    86 Broy./SMGL  0.30E+00   66.7     0.00012361     -3518.1689625998 -6.48E-06
 SMEAGOL DEBUG| Number of electrons in the unit cell =      1183.9705708695
    87 Broy./SMGL  0.30E+00   64.8     0.00063547     -3518.1689447097  1.79E-05
 SMEAGOL DEBUG| Number of electrons in the unit cell =      1183.9705726329
    88 Broy./SMGL  0.30E+00   65.4     0.00063547     -3518.1689533359 -8.63E-06
 SMEAGOL DEBUG| Number of electrons in the unit cell =      1183.9705716683
    89 Broy./SMGL  0.30E+00   64.3     0.00003873     -3518.1689400958  1.32E-05
 SMEAGOL DEBUG| Number of electrons in the unit cell =      1183.9705720716
    90 Broy./SMGL  0.30E+00   65.0     0.00063547     -3518.1689588405 -1.87E-05
 SMEAGOL DEBUG| Number of electrons in the unit cell =      1183.9705721538
    91 Broy./SMGL  0.30E+00   64.1     0.00063547     -3518.1689571547  1.69E-06
 SMEAGOL DEBUG| Number of electrons in the unit cell =      1183.9705722569
    92 Broy./SMGL  0.30E+00   65.5     0.00000001     -3518.1689567154  4.39E-07

  *** SCF run converged in    92 steps ***


  Electronic density on regular grids:      -1183.9705722569        0.0294277431
  Core density on regular grids:             1183.9999998085       -0.0000001915
  Total charge density on r-space grids:        0.0294275516
  Total charge density g-space grids:           0.0294275516

  Overlap energy of the core charge distribution:               0.00001347459308
  Self energy of the core charge distribution:              -6148.38221378166963
  Core Hamiltonian energy:                                   1943.19752310584340
  Hartree energy:                                            1242.39925279775548
  Exchange-correlation energy:                               -555.38353231188444
  Electronic entropic energy:                                   0.00000000000000
  Fermi energy:                                                 0.00000000000000

  Total energy:                                             -3518.16895671536258

 The electron density is written in cube file format to the file:

 V--4.4-ELECTRON_DENSITY-1_0.cube

 !-----------------------------------------------------------------------------!
                     Mulliken Population Analysis

 #  Atom  Element  Kind  Atomic population                           Net charge
       1     Au       1         11.000002                             -0.000002
       2     Au       1         11.000003                             -0.000003
       3     Au       1         11.000002                             -0.000002
       4     Au       1         11.000003                             -0.000003
       5     Au       1         11.000002                             -0.000002
       6     Au       1         11.000003                             -0.000003
       7     Au       1         11.000002                             -0.000002
       8     Au       1         11.000003                             -0.000003
       9     Au       1         11.000277                             -0.000277
      10     Au       1         11.000080                             -0.000080
      11     Au       1         11.000217                             -0.000217
      12     Au       1         11.000217                             -0.000217
      13     Au       1         11.000335                             -0.000335
      14     Au       1         11.000207                             -0.000207
      15     Au       1         11.000217                             -0.000217
      16     Au       1         11.000217                             -0.000217
      17     Au       1         10.995588                              0.004412
      18     Au       1         10.995581                              0.004419
      19     Au       1         10.994961                              0.005039
      20     Au       1         10.994930                              0.005070
      21     Au       1         10.994866                              0.005134
      22     Au       1         10.994877                              0.005123
      23     Au       1         10.994951                              0.005049
      24     Au       1         10.994917                              0.005083
      25     Au       1         10.994699                              0.005301
      26     Au       1         10.991304                              0.008696
      27     Au       1         10.991102                              0.008898
      28     Au       1         10.991168                              0.008832
      29     Au       1         10.998439                              0.001561
      30     Au       1         10.991899                              0.008101
      31     Au       1         10.991103                              0.008897
      32     Au       1         10.991167                              0.008833
[...]
     13       Au     1      11.000         11.000                         0.000
     14       Au     1      11.000         11.000                         0.000
     15       Au     1      11.000         11.000                         0.000
     16       Au     1      11.000         11.000                         0.000
     17       Au     1      11.000         10.999                         0.001
     18       Au     1      11.000         10.999                         0.001
     19       Au     1      11.000         10.999                         0.001
     20       Au     1      11.000         10.999                         0.001
     21       Au     1      11.000         10.999                         0.001
     22       Au     1      11.000         10.999                         0.001
     23       Au     1      11.000         10.999                         0.001
     24       Au     1      11.000         10.999                         0.001
     25       Au     1      11.000         11.008                        -0.008
     26       Au     1      11.000         11.007                        -0.007
     27       Au     1      11.000         11.007                        -0.007
     28       Au     1      11.000         11.007                        -0.007
     29       Au     1      11.000         11.008                        -0.008
     30       Au     1      11.000         11.008                        -0.008
     31       Au     1      11.000         11.007                        -0.007
     32       Au     1      11.000         11.007                        -0.007
     33       Au     1      11.000         10.992                         0.008
     34       Au     1      11.000         10.992                         0.008
     35       Au     1      11.000         10.993                         0.007
     36       Au     1      11.000         10.994                         0.006
     37       Au     1      11.000         10.994                         0.006
     38       Au     1      11.000         10.994                         0.006
     39       Au     1      11.000         10.993                         0.007
     40       Au     1      11.000         10.994                         0.006
     41       Au     1      11.000         10.989                         0.011
     42       Au     1      11.000         10.984                         0.016
     43       Au     1      11.000         10.988                         0.012
     44       Au     1      11.000         10.988                         0.012
     45       Au     1      11.000         10.991                         0.009
     46       Au     1      11.000         10.994                         0.006
     47       Au     1      11.000         10.988                         0.012
     48       Au     1      11.000         10.988                         0.012
     49       Au     1      11.000         11.001                        -0.001
     50       Au     1      11.000         11.001                        -0.001
     51       Au     1      11.000         10.942                         0.058
     52       Au     1      11.000         11.000                         0.000
     53       Au     1      11.000         10.950                         0.050
     54       Au     1      11.000         10.950                         0.050
     55       Au     1      11.000         10.942                         0.058
     56       Au     1      11.000         11.000                         0.000
     57       S      2       6.000          5.969                         0.031
     58       C      3       4.000          4.055                        -0.055
     59       H      4       1.000          0.971                         0.029
     60       H      4       1.000          0.970                         0.030
     61       C      3       4.000          4.061                        -0.061
     62       C      3       4.000          4.064                        -0.064
     63       C      3       4.000          4.039                        -0.039
     64       C      3       4.000          4.038                        -0.038
     65       H      4       1.000          0.953                         0.047
     66       H      4       1.000          0.954                         0.046
     67       C      3       4.000          4.008                        -0.008
     68       S      2       6.000          6.023                        -0.023
     69       Au     1      11.000         11.068                        -0.068
     70       Au     1      11.000         11.068                        -0.068
     71       Au     1      11.000         10.984                         0.016
     72       Au     1      11.000         11.062                        -0.062
     73       Au     1      11.000         10.982                         0.018
     74       Au     1      11.000         10.982                         0.018
     75       Au     1      11.000         10.983                         0.017
     76       Au     1      11.000         11.062                        -0.062
     77       Au     1      11.000         10.984                         0.016
     78       Au     1      11.000         10.989                         0.011
     79       Au     1      11.000         10.987                         0.013
     80       Au     1      11.000         10.987                         0.013
     81       Au     1      11.000         10.995                         0.005
     82       Au     1      11.000         10.982                         0.018
     83       Au     1      11.000         10.987                         0.013
     84       Au     1      11.000         10.987                         0.013
     85       Au     1      11.000         11.013                        -0.013
     86       Au     1      11.000         11.013                        -0.013
     87       Au     1      11.000         11.014                        -0.014
     88       Au     1      11.000         11.013                        -0.013
     89       Au     1      11.000         11.015                        -0.015
     90       Au     1      11.000         11.015                        -0.015
     91       Au     1      11.000         11.014                        -0.014
     92       Au     1      11.000         11.013                        -0.013
     93       Au     1      11.000         10.997                         0.003
     94       Au     1      11.000         10.996                         0.004
     95       Au     1      11.000         10.997                         0.003
     96       Au     1      11.000         10.997                         0.003
     97       Au     1      11.000         10.998                         0.002
     98       Au     1      11.000         10.997                         0.003
     99       Au     1      11.000         10.997                         0.003
    100       Au     1      11.000         10.997                         0.003
    101       Au     1      11.000         11.000                         0.000
    102       Au     1      11.000         11.000                         0.000
    103       Au     1      11.000         11.000                         0.000
    104       Au     1      11.000         11.000                         0.000
    105       Au     1      11.000         11.000                         0.000
    106       Au     1      11.000         11.000                         0.000
    107       Au     1      11.000         11.000                         0.000
    108       Au     1      11.000         11.000                         0.000
    109       Au     1      11.000         11.000                         0.000
    110       Au     1      11.000         11.000                         0.000
    111       Au     1      11.000         11.000                         0.000
    112       Au     1      11.000         11.000                        -0.000
    113       Au     1      11.000         11.000                        -0.000
    114       Au     1      11.000         11.000                        -0.000
    115       Au     1      11.000         11.000                         0.000
    116       Au     1      11.000         11.000                        -0.000

  Total Charge                                                            0.029
 !-----------------------------------------------------------------------------!
 Calculating transmission coefficient

 ENERGY| Total FORCE_EVAL ( QS ) energy [a.u.]:            -3518.168956715362583

 -------------------------------------------------------------------------------
 -                                                                             -
 -                                DBCSR STATISTICS                             -
 -                                                                             -
 -------------------------------------------------------------------------------
 COUNTER                                    TOTAL       BLAS       SMM       ACC
 flops inhomo. stacks                           0       0.0%      0.0%      0.0%
 flops total                         0.000000E+00       0.0%      0.0%      0.0%
 flops max/rank                      0.000000E+00       0.0%      0.0%      0.0%
 matmuls inhomo. stacks                         0       0.0%      0.0%      0.0%
 matmuls total                                  0       0.0%      0.0%      0.0%
 number of processed stacks                     0       0.0%      0.0%      0.0%
 average stack size                                     0.0       0.0       0.0
 marketing flops                     0.000000E+00
 -------------------------------------------------------------------------------
 -                                                                             -
 -                      DBCSR MESSAGE PASSING PERFORMANCE                      -
 -                                                                             -
 -------------------------------------------------------------------------------
 ROUTINE             CALLS      AVE VOLUME [Bytes]
 MP_Bcast                1                     12.
 MP_Allreduce         9403                      8.
 MP_Alltoall          6545                 173323.
 -------------------------------------------------------------------------------

 -------------------------------------------------------------------------------
 -                                                                             -
 -                                DBM STATISTICS                               -
 -                                                                             -
 -------------------------------------------------------------------------------
    M  x    N  x    K                                          COUNT     PERCENT
 -------------------------------------------------------------------------------

 -------------------------------------------------------------------------------
 -                                                                             -
 -                                GRID STATISTICS                              -
 -                                                                             -
 -------------------------------------------------------------------------------
 LP    KERNEL             BACKEND                              COUNT     PERCENT
 4     collocate ortho    REF                                9446475      46.86%
 4     integrate ortho    REF                                9344900      46.35%
 3     collocate ortho    REF                                 413571       2.05%
 3     integrate ortho    REF                                 409124       2.03%
 0     collocate general  REF                                 250560       1.24%
 0     integrate general  REF                                 222720       1.10%
 2     collocate ortho    REF                                  36828       0.18%
 2     integrate ortho    REF                                  36432       0.18%
 -------------------------------------------------------------------------------

 MEMORY| Estimated peak process memory [MiB]                                 983

 -------------------------------------------------------------------------------
 ----                             MULTIGRID INFO                            ----
 -------------------------------------------------------------------------------
 count for grid        1:        1699776          cutoff [a.u.]          200.00
 count for grid        2:        2260471          cutoff [a.u.]           66.67
 count for grid        3:        1204019          cutoff [a.u.]           22.22
 count for grid        4:         414152          cutoff [a.u.]            7.41
 total gridlevel count  :        5578418

 -------------------------------------------------------------------------------
 -                                                                             -
 -                         MESSAGE PASSING PERFORMANCE                         -
 -                                                                             -
 -------------------------------------------------------------------------------

 ROUTINE             CALLS      AVE VOLUME [Bytes]
 MP_Group                5
 MP_Bcast            68998                  17845.
 MP_Allreduce         7688                 910562.
 MP_Sync              1114
 MP_Alltoall          1681              674433971.
 MP_ISendRecv        88430                   4000.
 MP_Wait            109482
 MP_ISend            30241                  37342.
 MP_IRecv            30339                  37231.
 MP_Recv              8415                 271360.
 MP_Write_All            2                 248850.
 -------------------------------------------------------------------------------


 -------------------------------------------------------------------------------
 -                                                                             -
 -                           R E F E R E N C E S                               -
 -                                                                             -
 -------------------------------------------------------------------------------
 
 CP2K version 2022.1 (Development Version), the CP2K developers group (2022).
 CP2K is freely available from https://www.cp2k.org/ .

 Kuehne,Thomas D.; Iannuzzi,Marcella; Del Ben,Mauro;
 Rybkin,Vladimir V.; Seewald,Patrick; Stein,Frederick; Laino,Teodoro;
 Khaliullin,Rustam Z.; Schuett,Ole; Schiffmann,Florian; Golze,Dorothea;
 Wilhelm,Jan; Chulkov,Sergey; Bani-Hashemian,Mohammad Hossein;
 Weber,Valery; Borstnik,Urban; Taillefumier,Mathieu;
 Jakobovits,Alice Shoshana; Lazzaro,Alfio; Pabst,Hans; Mueller,Tiziano;
 Schade,Robert; Guidon,Manuel; Andermatt,Samuel; Holmberg,Nico;
 Schenter,Gregory K.; Hehn,Anna; Bussy,Augustin; Belleflamme,Fabian;
 Tabacchi,Gloria; Gloess,Andreas; Lass,Michael; Bethune,Iain;
 Mundy,Christopher J.; Plessl,Christian; Watkins,Matt;
 VandeVondele,Joost; Krack,Matthias; Hutter,Juerg. 
 The Journal of Chemical Physics, 152 (19), (2020). 
 CP2K: An electronic structure and molecular dynamics software package -
 Quickstep: Efficient and accurate electronic structure calculations.
 https://doi.org/10.1063/5.0007045

 Togo, Atsushi; Tanaka, Isao. arXiv, 1808.01590 (2018). 
 Spglib : a software library for crystal symmetry search.
 https://doi.org/xxx

 Schuett, Ole; Messmer, Peter; Hutter, Juerg; VandeVondele, Joost. 
 Electronic Structure Calculations on Graphics Processing Units, John
 Wiley & Sons, Ltd, 173-190 (2016). 
 GPU-Accelerated Sparse Matrix-Matrix Multiplication for
 Linear Scaling Density Functional Theory.
 https://doi.org/10.1002/9781118670712.ch8

 Heinecke, A; Henry, G; Hutchinson, M; Pabst, H. 
 Proceedings of Intl. Supercomputing Conference, 981-991 (2016). 
 LIBXSMM: Accelerating Small Matrix Multiplications
 by Runtime Code Generation.
 https://doi.org/10.1109/SC.2016.83

 Borstnik, U; VandeVondele, J; Weber, V; Hutter, J. 
 PARALLEL COMPUTING, 40 (5-6), 47-58 (2014). 
 Sparse matrix multiplication: The distributed block-compressed sparse
 row library.
 https://doi.org/10.1016/j.parco.2014.03.012

 Hutter, J; Iannuzzi, M; Schiffmann, F; VandeVondele, J. 
 WIREs Comput Mol Sci., 4 (1), 15-25 (2014). 
 CP2K: atomistic simulations of condensed matter systems.
 https://doi.org/10.1002/wcms.1159

 VandeVondele, J; Hutter, J. 
 JOURNAL OF CHEMICAL PHYSICS, 127 (11), 114105 (2007). 
 Gaussian basis sets for accurate calculations on molecular systems in
 gas and condensed phases.
 https://doi.org/10.1063/1.2770708

 Krack, M. 
 THEORETICAL CHEMISTRY ACCOUNTS, 114 (1-3), 145-152 (2005). 
 Pseudopotentials for H to Kr optimized for gradient-corrected
 exchange-correlation functionals.
 https://doi.org/10.1007/s00214-005-0655-y

 VandeVondele, J; Krack, M; Mohamed, F; Parrinello, M; Chassaing, T;
 Hutter, J. COMPUTER PHYSICS COMMUNICATIONS, 167 (2), 103-128 (2005). 
 QUICKSTEP: Fast and accurate density functional calculations using a
 mixed Gaussian and plane waves approach.
 https://doi.org/10.1016/j.cpc.2004.12.014

 Frigo, M; Johnson, SG. 
 PROCEEDINGS OF THE IEEE, 93 (2), 216-231 (2005). 
 The design and implementation of FFTW3.
 https://doi.org/10.1109/JPROC.2004.840301

 Hartwigsen, C; Goedecker, S; Hutter, J. 
 PHYSICAL REVIEW B, 58 (7), 3641-3662 (1998). 
 Relativistic separable dual-space Gaussian pseudopotentials from H to Rn.
 https://doi.org/10.1103/PhysRevB.58.3641

 Lippert, G; Hutter, J; Parrinello, M. 
 MOLECULAR PHYSICS, 92 (3), 477-487 (1997). 
 A hybrid Gaussian and plane wave density functional scheme.
 https://doi.org/10.1080/002689797170220

 Goedecker, S; Teter, M; Hutter, J. 
 PHYSICAL REVIEW B, 54 (3), 1703-1710 (1996). 
 Separable dual-space Gaussian pseudopotentials.
 https://doi.org/10.1103/PhysRevB.54.1703


 -------------------------------------------------------------------------------
 -                                                                             -
 -                                T I M I N G                                  -
 -                                                                             -
 -------------------------------------------------------------------------------
 SUBROUTINE                       CALLS  ASD         SELF TIME        TOTAL TIME
                                MAXIMUM       AVERAGE  MAXIMUM  AVERAGE  MAXIMUM
 CP2K                                 1  1.0    0.036    0.051 6198.140 6198.156
 qs_energies                          1  2.0    0.000    0.001 6197.850 6197.893
 run_smeagol_emtrans                 93  6.0 5933.168 6017.985 6169.390 6172.761
 scf_env_do_scf                       1  3.0    0.000    0.000 6127.318 6127.356
 scf_env_do_scf_inner_loop           92  4.0    0.008    0.392 6127.318 6127.356
 qs_scf_new_mos_kp                   92  5.0    0.001    0.004 6102.125 6105.458
 -------------------------------------------------------------------------------

 The number of warnings for this run is : 0
 
 -------------------------------------------------------------------------------
  **** **** ******  **  PROGRAM ENDED AT                 2023-03-16 12:01:52.562
 ***** ** ***  *** **   PROGRAM RAN ON                     cn1000.scarf.rl.ac.uk
 **    ****   ******    PROGRAM RAN BY                                 scarf1157
 ***** **    ** ** **   PROGRAM PROCESS ID                                 43296
  **** **  *******  **  PROGRAM STOPPED IN /work4/scd/scarf1157/work/testing/cp2
                                           k-smeagol/bdt/cp2k/hollow-site/transp
                                           ort-cp2k/5-4/geometry-ordered/3x3-4/s
                                           z/bulk_layers-4/transmission/exp/dzvp
                                           /sergey/kpoints_bulk-2-2-100_em-2-2-1
                                           _hlb-t-auto_iv
