 DBCSR| CPU Multiplication driver                                           XSMM
 DBCSR| Multrec recursion limit                                              512
 DBCSR| Multiplication stack size                                           1000
 DBCSR| Maximum elements for images                                    UNLIMITED
 DBCSR| Multiplicative factor virtual images                                   1
 DBCSR| Use multiplication densification                                       T
 DBCSR| Multiplication size stacks                                             3
 DBCSR| Use memory pool for CPU allocation                                     F
 DBCSR| Number of 3D layers                                               SINGLE
 DBCSR| Use MPI memory allocation                                              F
 DBCSR| Use RMA algorithm                                                      F
 DBCSR| Use Communication thread                                               T
 DBCSR| Communication thread load                                             87
 DBCSR| MPI: My node id                                                        0
 DBCSR| MPI: Number of nodes                                                 240
 DBCSR| OMP: Current number of threads                                         1
 DBCSR| OMP: Max number of threads                                             1
 DBCSR| Split modifier for TAS multiplication algorithm                  1.0E+00


  **** **** ******  **  PROGRAM STARTED AT               2023-03-16 06:16:52.385
 ***** ** ***  *** **   PROGRAM STARTED ON                 cn1000.scarf.rl.ac.uk
 **    ****   ******    PROGRAM STARTED BY                             scarf1157
 ***** **    ** ** **   PROGRAM PROCESS ID                                 11329
  **** **  *******  **  PROGRAM STARTED IN /work4/scd/scarf1157/work/testing/cp2
                                           k-smeagol/bdt/cp2k/hollow-site/transp
                                           ort-cp2k/5-4/geometry-ordered/3x3-4/s
                                           z/bulk_layers-4/transmission/exp/dzvp
                                           /sergey/kpoints_bulk-2-2-100_em-2-2-1
                                           _hlb-t-auto_iv

 CP2K| version string:                 CP2K version 2022.1 (Development Version)
 CP2K| source code revision number:                                  git:e136ce5
 CP2K| cp2kflags: omp fftw3 libxc parallel mpi3 scalapack xsmm spglib           
 CP2K| is freely available from                            https://www.cp2k.org/
 CP2K| Program compiled at                          Thu  9 Mar 17:17:16 GMT 2023
 CP2K| Program compiled on                                 cn1108.scarf.rl.ac.uk
 CP2K| Program compiled for                                                local
 CP2K| Data directory path    /home/vol07/scarf1157/code/smeagol/cp2k-smeagol/sc
 CP2K| Input file name                                                V_-4.6.inp

 GLOBAL| Force Environment number                                              1
 GLOBAL| Basis set file name                                        BASIS_MOLOPT
 GLOBAL| Potential file name                                      GTH_POTENTIALS
 GLOBAL| MM Potential file name                                     MM_POTENTIAL
 GLOBAL| Coordinate file name                                             em.xyz
 GLOBAL| Method name                                                        CP2K
 GLOBAL| Project name                                                     V--4.6
 GLOBAL| Run type                                                         ENERGY
 GLOBAL| FFT library                                                       FFTW3
 GLOBAL| Diagonalization library                                       ScaLAPACK
 GLOBAL| Orthonormality check for eigenvectors                          DISABLED
 GLOBAL| Matrix multiplication library                                 ScaLAPACK
 GLOBAL| All-to-all communication in single precision                          F
 GLOBAL| FFTs using library dependent lengths                                  T
 GLOBAL| Grid backend                                                       AUTO
 GLOBAL| Global print level                                               MEDIUM
 GLOBAL| MPI I/O enabled                                                       T
 GLOBAL| Total number of message passing processes                           240
 GLOBAL| Number of threads for this process                                    1
 GLOBAL| This output is from process                                           0
 GLOBAL| Stack size for threads created by OpenMP (OMP_STACKSIZE)        default
 GLOBAL| CPU model name                         AMD EPYC 7502P 32-Core Processor
 GLOBAL| CPUID                                                              1002

 MEMORY| system memory details [Kb]
 MEMORY|                        rank 0           min           max       average
 MEMORY| MemTotal            263897776     263896980     263897776     263897081
 MEMORY| MemFree             109538908     109538908     208456940     169581771
 MEMORY| Buffers                  2476          2476          2568          2544
 MEMORY| Cached              138237132      44808832     138237132      79024972
 MEMORY| Slab                  1741216        979048       1741216       1304909
 MEMORY| SReclaimable          1210336        530228       1210336        788684
 MEMORY| MemLikelyFree       248988852     248367660     253798564     249397972


 *** Fundamental physical constants (SI units) ***

 *** Literature: B. J. Mohr and B. N. Taylor,
 ***             CODATA recommended values of the fundamental physical
 ***             constants: 2006, Web Version 5.1
 ***             http://physics.nist.gov/constants

 Speed of light in vacuum [m/s]                             2.99792458000000E+08
 Magnetic constant or permeability of vacuum [N/A**2]       1.25663706143592E-06
 Electric constant or permittivity of vacuum [F/m]          8.85418781762039E-12
 Planck constant (h) [J*s]                                  6.62606896000000E-34
 Planck constant (h-bar) [J*s]                              1.05457162825177E-34
 Elementary charge [C]                                      1.60217648700000E-19
 Electron mass [kg]                                         9.10938215000000E-31
 Electron g factor [ ]                                     -2.00231930436220E+00
 Proton mass [kg]                                           1.67262163700000E-27
 Fine-structure constant                                    7.29735253760000E-03
 Rydberg constant [1/m]                                     1.09737315685270E+07
 Avogadro constant [1/mol]                                  6.02214179000000E+23
 Boltzmann constant [J/K]                                   1.38065040000000E-23
 Atomic mass unit [kg]                                      1.66053878200000E-27
 Bohr radius [m]                                            5.29177208590000E-11

 *** Conversion factors ***

 [u] -> [a.u.]                                              1.82288848426455E+03
 [Angstrom] -> [Bohr] = [a.u.]                              1.88972613288564E+00
 [a.u.] = [Bohr] -> [Angstrom]                              5.29177208590000E-01
 [a.u.] -> [s]                                              2.41888432650478E-17
 [a.u.] -> [fs]                                             2.41888432650478E-02
 [a.u.] -> [J]                                              4.35974393937059E-18
 [a.u.] -> [N]                                              8.23872205491840E-08
 [a.u.] -> [K]                                              3.15774647902944E+05
 [a.u.] -> [kJ/mol]                                         2.62549961709828E+03
 [a.u.] -> [kcal/mol]                                       6.27509468713739E+02
 [a.u.] -> [Pa]                                             2.94210107994716E+13
 [a.u.] -> [bar]                                            2.94210107994716E+08
 [a.u.] -> [atm]                                            2.90362800883016E+08
 [a.u.] -> [eV]                                             2.72113838565563E+01
 [a.u.] -> [Hz]                                             6.57968392072181E+15
 [a.u.] -> [1/cm] (wave numbers)                            2.19474631370540E+05
 [a.u./Bohr**2] -> [1/cm]                                   5.14048714338585E+03
 

 CELL_TOP| Volume [angstrom^3]:                                      2357.480286
 CELL_TOP| Vector a [angstrom     8.336     0.000     0.000   |a| =     8.336000
 CELL_TOP| Vector b [angstrom     0.000     8.336     0.000   |b| =     8.336000
 CELL_TOP| Vector c [angstrom     0.000     0.000    33.926   |c| =    33.926000
 CELL_TOP| Angle (b,c), alpha [degree]:                                90.000000
 CELL_TOP| Angle (a,c), beta  [degree]:                                90.000000
 CELL_TOP| Angle (a,b), gamma [degree]:                                90.000000
 CELL_TOP| Numerically orthorhombic:                                         YES
 CELL_TOP| Periodicity                                                       XYZ

 GENERATE|  Preliminary Number of Bonds generated:                             0
 GENERATE|  Achieved consistency in connectivity generation.

 CELL| Volume [angstrom^3]:                                          2357.480286
 CELL| Vector a [angstrom]:       8.336     0.000     0.000   |a| =     8.336000
 CELL| Vector b [angstrom]:       0.000     8.336     0.000   |b| =     8.336000
 CELL| Vector c [angstrom]:       0.000     0.000    33.926   |c| =    33.926000
 CELL| Angle (b,c), alpha [degree]:                                    90.000000
 CELL| Angle (a,c), beta  [degree]:                                    90.000000
 CELL| Angle (a,b), gamma [degree]:                                    90.000000
 CELL| Numerically orthorhombic:                                             YES
 CELL| Periodicity                                                           XYZ

 CELL_REF| Volume [angstrom^3]:                                      2357.480286
 CELL_REF| Vector a [angstrom     8.336     0.000     0.000   |a| =     8.336000
 CELL_REF| Vector b [angstrom     0.000     8.336     0.000   |b| =     8.336000
 CELL_REF| Vector c [angstrom     0.000     0.000    33.926   |c| =    33.926000
 CELL_REF| Angle (b,c), alpha [degree]:                                90.000000
 CELL_REF| Angle (a,c), beta  [degree]:                                90.000000
 CELL_REF| Angle (a,b), gamma [degree]:                                90.000000
 CELL_REF| Numerically orthorhombic:                                         YES
 CELL_REF| Periodicity                                                       XYZ

 *******************************************************************************
                                    Kpoints
 *******************************************************************************
 BRILLOUIN| K-point scheme                                        Monkhorst-Pack
 BRILLOUIN| K-Point grid                                             2    2    1
 BRILLOUIN| Accuracy in Symmetry determination                      0.100000E-07
 BRILLOUIN| K-Point point group symmetrization                               OFF
 BRILLOUIN| Wavefunction type                                            COMPLEX
 BRILLOUIN| Use full k-point grid     
 BRILLOUIN| List of Kpoints [2 Pi/Bohr]                                        4
 BRILLOUIN| Number           Weight            X              Y              Z
 BRILLOUIN|     1           0.25000       -0.25000       -0.25000        0.00000
 BRILLOUIN|     2           0.25000       -0.25000        0.25000        0.00000
 BRILLOUIN|     3           0.25000        0.25000       -0.25000        0.00000
 BRILLOUIN|     4           0.25000        0.25000        0.25000        0.00000
 *******************************************************************************

 *******************************************************************************
 *******************************************************************************
 **                                                                           **
 **     #####                         ##              ##                      **
 **    ##   ##            ##          ##              ##                      **
 **   ##     ##                       ##            ######                    **
 **   ##     ##  ##   ##  ##   #####  ##  ##   ####   ##    #####    #####    **
 **   ##     ##  ##   ##  ##  ##      ## ##   ##      ##   ##   ##  ##   ##   **
 **   ##  ## ##  ##   ##  ##  ##      ####     ###    ##   ######   ######    **
 **    ##  ###   ##   ##  ##  ##      ## ##      ##   ##   ##       ##        **
 **     #######   #####   ##   #####  ##  ##  ####    ##    #####   ##        **
 **           ##                                                    ##        **
 **                                                                           **
 **                                                ... make the atoms dance   **
 **                                                                           **
 **            Copyright (C) by CP2K developers group (2000-2022)             **
 **                      J. Chem. Phys. 152, 194103 (2020)                    **
 **                                                                           **
 *******************************************************************************

 DFT| Spin restricted Kohn-Sham (RKS) calculation                            RKS
 DFT| Multiplicity                                                             1
 DFT| Number of spin states                                                    1
 DFT| Charge                                                                   0
 DFT| Self-interaction correction (SIC)                                       NO
 DFT| Cutoffs: density                                              1.000000E-10
 DFT|          gradient                                             1.000000E-10
 DFT|          tau                                                  1.000000E-10
 DFT|          cutoff_smoothing_range                               0.000000E+00
 DFT| XC density smoothing                                                  NONE
 DFT| XC derivatives                                                          PW

 FUNCTIONAL| PADE:
 FUNCTIONAL| S. Goedecker, M. Teter and J. Hutter, Phys. Rev. B 54, 1703 (1996) 


 QS| Method:                                                                 GPW
 QS| Density plane wave grid type                        NON-SPHERICAL FULLSPACE
 QS| Number of grid levels:                                                    4
 QS| Density cutoff [a.u.]:                                                200.0
 QS| Multi grid cutoff [a.u.]: 1) grid level                               200.0
 QS|                           2) grid level                                66.7
 QS|                           3) grid level                                22.2
 QS|                           4) grid level                                 7.4
 QS| Grid level progression factor:                                          3.0
 QS| Relative density cutoff [a.u.]:                                        20.0
 QS| Interaction thresholds: eps_pgf_orb:                                1.0E-05
 QS|                         eps_filter_matrix:                          0.0E+00
 QS|                         eps_core_charge:                            1.0E-12
 QS|                         eps_rho_gspace:                             1.0E-10
 QS|                         eps_rho_rspace:                             1.0E-10
 QS|                         eps_gvg_rspace:                             1.0E-05
 QS|                         eps_ppl:                                    1.0E-02
 QS|                         eps_ppnl:                                   1.0E-07


 ATOMIC KIND INFORMATION

  1. Atomic kind: Au                                    Number of atoms:     104

     Orbital Basis Set                                         SZV-MOLOPT-SR-GTH

       Number of orbital shell sets:                                           1
       Number of orbital shells:                                               3
       Number of primitive Cartesian functions:                                5
       Number of Cartesian basis functions:                                   10
       Number of spherical basis functions:                                    9
       Norm type:                                                              2

       Normalised Cartesian orbitals:

                        Set   Shell   Orbital            Exponent    Coefficient

                          1       1    2s                2.950008       0.074626
                                                         1.563057      -0.007898
                                                         0.666664      -0.297688
                                                         0.251083       0.136809
                                                         0.081714       0.088198

                          1       2    3px               2.950008       0.148824
                                                         1.563057       0.025430
                                                         0.666664      -0.123003
                                                         0.251083       0.033648
                                                         0.081714       0.059008
                          1       2    3py               2.950008       0.148824
                                                         1.563057       0.025430
                                                         0.666664      -0.123003
                                                         0.251083       0.033648
                                                         0.081714       0.059008
                          1       2    3pz               2.950008       0.148824
                                                         1.563057       0.025430
                                                         0.666664      -0.123003
                                                         0.251083       0.033648
                                                         0.081714       0.059008

                          1       3    4dx2              2.950008      -0.139595
                                                         1.563057       1.319655
                                                         0.666664       0.377081
                                                         0.251083       0.046872
                                                         0.081714       0.001393
                          1       3    4dxy              2.950008      -0.241786
                                                         1.563057       2.285709
                                                         0.666664       0.653124
                                                         0.251083       0.081185
                                                         0.081714       0.002412
                          1       3    4dxz              2.950008      -0.241786
                                                         1.563057       2.285709
                                                         0.666664       0.653124
                                                         0.251083       0.081185
                                                         0.081714       0.002412
                          1       3    4dy2              2.950008      -0.139595
                                                         1.563057       1.319655
                                                         0.666664       0.377081
                                                         0.251083       0.046872
                                                         0.081714       0.001393
                          1       3    4dyz              2.950008      -0.241786
                                                         1.563057       2.285709
                                                         0.666664       0.653124
                                                         0.251083       0.081185
                                                         0.081714       0.002412
                          1       3    4dz2              2.950008      -0.139595
                                                         1.563057       1.319655
                                                         0.666664       0.377081
                                                         0.251083       0.046872
                                                         0.081714       0.001393

       Atomic covalent radius [Angstrom]:                                  1.340

       Atomic van der Waals radius [Angstrom]:                             1.660

     GTH Potential information for                                  GTH-PADE-q11

       Description:                       Goedecker-Teter-Hutter pseudopotential
                                           Goedecker et al., PRB 54, 1703 (1996)
                                          Hartwigsen et al., PRB 58, 3641 (1998)
                                                      Krack, TCA 114, 145 (2005)

       Gaussian exponent of the core charge distribution:               1.436369
       Electronic configuration (s p d ...):                           1   0  10

       Parameters of the local part of the GTH pseudopotential:

                          rloc        C1          C2          C3          C4
                        0.590000   11.604428

       Parameters of the non-local part of the GTH pseudopotential:

                   l      r(l)      h(i,j,l)

                   0    0.521180    2.538614   -1.046137
                                   -1.046137    2.701113
                   1    0.630613    0.394853   -0.869592
                                   -0.869592    2.057831
                   2    0.440706   -4.719070    0.727771
                                    0.727771   -1.650429

  2. Atomic kind: S                                     Number of atoms:       2

     Orbital Basis Set                                        DZVP-MOLOPT-SR-GTH

       Number of orbital shell sets:                                           1
       Number of orbital shells:                                               5
       Number of primitive Cartesian functions:                                4
       Number of Cartesian basis functions:                                   14
       Number of spherical basis functions:                                   13
       Norm type:                                                              2

       Normalised Cartesian orbitals:

                        Set   Shell   Orbital            Exponent    Coefficient

                          1       1    2s                2.215855       0.308496
                                                         1.131471       0.138505
                                                         0.410168      -0.373736
                                                         0.140587      -0.040370

                          1       2    3s                2.215855      -0.329528
                                                         1.131471      -0.517509
                                                         0.410168       0.787368
                                                         0.140587      -0.322786

                          1       3    3px               2.215855       0.420434
                                                         1.131471      -0.319283
                                                         0.410168      -0.335323
                                                         0.140587      -0.030976
                          1       3    3py               2.215855       0.420434
                                                         1.131471      -0.319283
                                                         0.410168      -0.335323
                                                         0.140587      -0.030976
                          1       3    3pz               2.215855       0.420434
                                                         1.131471      -0.319283
                                                         0.410168      -0.335323
                                                         0.140587      -0.030976

                          1       4    4px               2.215855       0.241296
                                                         1.131471      -0.170582
                                                         0.410168      -0.186977
                                                         0.140587       0.153509
                          1       4    4py               2.215855       0.241296
                                                         1.131471      -0.170582
                                                         0.410168      -0.186977
                                                         0.140587       0.153509
                          1       4    4pz               2.215855       0.241296
                                                         1.131471      -0.170582
                                                         0.410168      -0.186977
                                                         0.140587       0.153509

                          1       5    4dx2              2.215855       0.573559
                                                         1.131471       0.544926
                                                         0.410168       0.228284
                                                         0.140587       0.008811
                          1       5    4dxy              2.215855       0.993434
                                                         1.131471       0.943840
                                                         0.410168       0.395400
                                                         0.140587       0.015260
                          1       5    4dxz              2.215855       0.993434
                                                         1.131471       0.943840
                                                         0.410168       0.395400
                                                         0.140587       0.015260
                          1       5    4dy2              2.215855       0.573559
                                                         1.131471       0.544926
                                                         0.410168       0.228284
                                                         0.140587       0.008811
                          1       5    4dyz              2.215855       0.993434
                                                         1.131471       0.943840
                                                         0.410168       0.395400
                                                         0.140587       0.015260
                          1       5    4dz2              2.215855       0.573559
                                                         1.131471       0.544926
                                                         0.410168       0.228284
                                                         0.140587       0.008811

       Atomic covalent radius [Angstrom]:                                  1.020

       Atomic van der Waals radius [Angstrom]:                             1.800

     GTH Potential information for                                   GTH-PADE-q6

       Description:                       Goedecker-Teter-Hutter pseudopotential
                                           Goedecker et al., PRB 54, 1703 (1996)
                                          Hartwigsen et al., PRB 58, 3641 (1998)
                                                      Krack, TCA 114, 145 (2005)

       Gaussian exponent of the core charge distribution:               2.834467
       Electronic configuration (s p d ...):                               2   4

       Parameters of the local part of the GTH pseudopotential:

                          rloc        C1          C2          C3          C4
                        0.420000   -6.554492

       Parameters of the non-local part of the GTH pseudopotential:

                   l      r(l)      h(i,j,l)

                   0    0.361757    7.905303   -1.731881
                                   -1.731881    4.471698
                   1    0.405285    3.866579

  3. Atomic kind: C                                     Number of atoms:       6

     Orbital Basis Set                                        DZVP-MOLOPT-SR-GTH

       Number of orbital shell sets:                                           1
       Number of orbital shells:                                               5
       Number of primitive Cartesian functions:                                5
       Number of Cartesian basis functions:                                   14
       Number of spherical basis functions:                                   13
       Norm type:                                                              2

       Normalised Cartesian orbitals:

                        Set   Shell   Orbital            Exponent    Coefficient

                          1       1    2s                5.605331       0.322515
                                                         2.113016       0.213043
                                                         0.769911      -0.209686
                                                         0.348157      -0.219794
                                                         0.128212      -0.022789

                          1       2    3s                5.605331       0.552234
                                                         2.113016       0.082072
                                                         0.769911       0.007843
                                                         0.348157       0.136893
                                                         0.128212       0.074283

                          1       3    3px               5.605331      -0.703879
                                                         2.113016      -0.642521
                                                         0.769911      -0.374851
                                                         0.348157      -0.139743
                                                         0.128212      -0.027849
                          1       3    3py               5.605331      -0.703879
                                                         2.113016      -0.642521
                                                         0.769911      -0.374851
                                                         0.348157      -0.139743
                                                         0.128212      -0.027849
                          1       3    3pz               5.605331      -0.703879
                                                         2.113016      -0.642521
                                                         0.769911      -0.374851
                                                         0.348157      -0.139743
                                                         0.128212      -0.027849

                          1       4    4px               5.605331      -0.480376
                                                         2.113016      -0.552894
                                                         0.769911      -0.316145
                                                         0.348157       0.210505
                                                         0.128212       0.076095
                          1       4    4py               5.605331      -0.480376
                                                         2.113016      -0.552894
                                                         0.769911      -0.316145
                                                         0.348157       0.210505
                                                         0.128212       0.076095
                          1       4    4pz               5.605331      -0.480376
                                                         2.113016      -0.552894
                                                         0.769911      -0.316145
                                                         0.348157       0.210505
                                                         0.128212       0.076095

                          1       5    4dx2              5.605331       0.640026
                                                         2.113016       0.274300
                                                         0.769911       0.446711
                                                         0.348157       0.028674
                                                         0.128212       0.029790
                          1       5    4dxy              5.605331       1.108557
                                                         2.113016       0.475102
                                                         0.769911       0.773726
                                                         0.348157       0.049666
                                                         0.128212       0.051599
                          1       5    4dxz              5.605331       1.108557
                                                         2.113016       0.475102
                                                         0.769911       0.773726
                                                         0.348157       0.049666
                                                         0.128212       0.051599
                          1       5    4dy2              5.605331       0.640026
                                                         2.113016       0.274300
                                                         0.769911       0.446711
                                                         0.348157       0.028674
                                                         0.128212       0.029790
                          1       5    4dyz              5.605331       1.108557
                                                         2.113016       0.475102
                                                         0.769911       0.773726
                                                         0.348157       0.049666
                                                         0.128212       0.051599
                          1       5    4dz2              5.605331       0.640026
                                                         2.113016       0.274300
                                                         0.769911       0.446711
                                                         0.348157       0.028674
                                                         0.128212       0.029790

       Atomic covalent radius [Angstrom]:                                  0.770

       Atomic van der Waals radius [Angstrom]:                             1.700

     GTH Potential information for                                   GTH-PADE-q4

       Description:                       Goedecker-Teter-Hutter pseudopotential
                                           Goedecker et al., PRB 54, 1703 (1996)
                                          Hartwigsen et al., PRB 58, 3641 (1998)
                                                      Krack, TCA 114, 145 (2005)

       Gaussian exponent of the core charge distribution:               4.109048
       Electronic configuration (s p d ...):                               2   2

       Parameters of the local part of the GTH pseudopotential:

                          rloc        C1          C2          C3          C4
                        0.348830   -8.513771    1.228432

       Parameters of the non-local part of the GTH pseudopotential:

                   l      r(l)      h(i,j,l)

                   0    0.304553    9.522842
                   1    0.232677

  4. Atomic kind: H                                     Number of atoms:       4

     Orbital Basis Set                                        DZVP-MOLOPT-SR-GTH

       Number of orbital shell sets:                                           1
       Number of orbital shells:                                               3
       Number of primitive Cartesian functions:                                5
       Number of Cartesian basis functions:                                    5
       Number of spherical basis functions:                                    5
       Norm type:                                                              2

       Normalised Cartesian orbitals:

                        Set   Shell   Orbital            Exponent    Coefficient

                          1       1    2s               10.068468      -0.133023
                                                         2.680223      -0.177618
                                                         0.791502      -0.258419
                                                         0.239116      -0.107525
                                                         0.082193      -0.014019

                          1       2    3s               10.068468       0.344673
                                                         2.680223       1.819821
                                                         0.791502      -0.999069
                                                         0.239116       0.017430
                                                         0.082193       0.082660

                          1       3    3px              10.068468       0.155326
                                                         2.680223       0.367157
                                                         0.791502       0.311480
                                                         0.239116       0.080105
                                                         0.082193       0.033440
                          1       3    3py              10.068468       0.155326
                                                         2.680223       0.367157
                                                         0.791502       0.311480
                                                         0.239116       0.080105
                                                         0.082193       0.033440
                          1       3    3pz              10.068468       0.155326
                                                         2.680223       0.367157
                                                         0.791502       0.311480
                                                         0.239116       0.080105
                                                         0.082193       0.033440

       Atomic covalent radius [Angstrom]:                                  0.320

       Atomic van der Waals radius [Angstrom]:                             1.090

     GTH Potential information for                                   GTH-PADE-q1

       Description:                       Goedecker-Teter-Hutter pseudopotential
                                           Goedecker et al., PRB 54, 1703 (1996)
                                          Hartwigsen et al., PRB 58, 3641 (1998)
                                                      Krack, TCA 114, 145 (2005)

       Gaussian exponent of the core charge distribution:              12.500000
       Electronic configuration (s p d ...):                                   1

       Parameters of the local part of the GTH pseudopotential:

                          rloc        C1          C2          C3          C4
                        0.200000   -4.180237    0.725075


 MOLECULE KIND INFORMATION


 All atoms are their own molecule, skipping detailed information


 TOTAL NUMBERS AND MAXIMUM NUMBERS

  Total number of            - Atomic kinds:                                   4
                             - Atoms:                                        116
                             - Shell sets:                                   116
                             - Shells:                                       364
                             - Primitive Cartesian functions:                578
                             - Cartesian basis functions:                   1172
                             - Spherical basis functions:                   1060

  Maximum angular momentum of- Orbital basis functions:                        2
                             - Local part of the GTH pseudopotential:          2
                             - Non-local part of the GTH pseudopotential:      4


 MODULE QUICKSTEP: ATOMIC COORDINATES IN ANGSTROM

   Atom Kind Element         X             Y             Z       Z(eff)     Mass
      1    1 Au   79      0.000000      0.000000      0.000000  11.0000 196.9666
      2    1 Au   79      0.000000      4.168000      0.000000  11.0000 196.9666
      3    1 Au   79      2.084000      2.084000      0.000000  11.0000 196.9666
      4    1 Au   79      2.084000      6.252000      0.000000  11.0000 196.9666
      5    1 Au   79      4.168000      0.000000      0.000000  11.0000 196.9666
      6    1 Au   79      4.168000      4.168000      0.000000  11.0000 196.9666
      7    1 Au   79      6.252000      2.084000      0.000000  11.0000 196.9666
      8    1 Au   79      6.252000      6.252000      0.000000  11.0000 196.9666
      9    1 Au   79      0.000000      2.084000      2.084000  11.0000 196.9666
     10    1 Au   79      0.000000      6.252000      2.084000  11.0000 196.9666
     11    1 Au   79      2.084000      0.000000      2.084000  11.0000 196.9666
     12    1 Au   79      2.084000      4.168000      2.084000  11.0000 196.9666
     13    1 Au   79      4.168000      2.084000      2.084000  11.0000 196.9666
     14    1 Au   79      4.168000      6.252000      2.084000  11.0000 196.9666
     15    1 Au   79      6.252000      0.000000      2.084000  11.0000 196.9666
     16    1 Au   79      6.252000      4.168000      2.084000  11.0000 196.9666
     17    1 Au   79      0.000000      0.000000      4.168000  11.0000 196.9666
     18    1 Au   79      0.000000      4.168000      4.168000  11.0000 196.9666
     19    1 Au   79      2.084000      2.084000      4.168000  11.0000 196.9666
     20    1 Au   79      2.084000      6.252000      4.168000  11.0000 196.9666
     21    1 Au   79      4.168000      0.000000      4.168000  11.0000 196.9666
     22    1 Au   79      4.168000      4.168000      4.168000  11.0000 196.9666
     23    1 Au   79      6.252000      2.084000      4.168000  11.0000 196.9666
     24    1 Au   79      6.252000      6.252000      4.168000  11.0000 196.9666
     25    1 Au   79      0.000000      2.084000      6.252000  11.0000 196.9666
     26    1 Au   79      0.000000      6.252000      6.252000  11.0000 196.9666
     27    1 Au   79      2.084000      0.000000      6.252000  11.0000 196.9666
     28    1 Au   79      2.084000      4.168000      6.252000  11.0000 196.9666
     29    1 Au   79      4.168000      2.084000      6.252000  11.0000 196.9666
     30    1 Au   79      4.168000      6.252000      6.252000  11.0000 196.9666
     31    1 Au   79      6.252000      0.000000      6.252000  11.0000 196.9666
     32    1 Au   79      6.252000      4.168000      6.252000  11.0000 196.9666
     33    1 Au   79      0.000000      0.000000      8.336000  11.0000 196.9666
     34    1 Au   79      0.000000      4.168000      8.336000  11.0000 196.9666
     35    1 Au   79      2.084000      2.084000      8.336000  11.0000 196.9666
     36    1 Au   79      2.084000      6.252000      8.336000  11.0000 196.9666
     37    1 Au   79      4.168000      0.000000      8.336000  11.0000 196.9666
     38    1 Au   79      4.168000      4.168000      8.336000  11.0000 196.9666
     39    1 Au   79      6.252000      2.084000      8.336000  11.0000 196.9666
     40    1 Au   79      6.252000      6.252000      8.336000  11.0000 196.9666
     41    1 Au   79      0.000000      2.084000     10.420000  11.0000 196.9666
     42    1 Au   79      0.000000      6.252000     10.420000  11.0000 196.9666
     43    1 Au   79      2.084000      0.000000     10.420000  11.0000 196.9666
     44    1 Au   79      2.084000      4.168000     10.420000  11.0000 196.9666
     45    1 Au   79      4.168000      2.084000     10.420000  11.0000 196.9666
     46    1 Au   79      4.168000      6.252000     10.420000  11.0000 196.9666
     47    1 Au   79      6.252000      0.000000     10.420000  11.0000 196.9666
     48    1 Au   79      6.252000      4.168000     10.420000  11.0000 196.9666
     49    1 Au   79      0.000000      0.000000     12.504000  11.0000 196.9666
     50    1 Au   79      0.000000      4.168000     12.504000  11.0000 196.9666
     51    1 Au   79      2.084000      2.084000     12.504000  11.0000 196.9666
     52    1 Au   79      2.084000      6.252000     12.504000  11.0000 196.9666
     53    1 Au   79      4.168000      0.000000     12.504000  11.0000 196.9666
     54    1 Au   79      4.168000      4.168000     12.504000  11.0000 196.9666
     55    1 Au   79      6.252000      2.084000     12.504000  11.0000 196.9666
     56    1 Au   79      6.252000      6.252000     12.504000  11.0000 196.9666
     57    2 S    16      4.171000      2.086000     13.790000   6.0000  32.0650
     58    3 C     6      4.175000      2.089000     15.551000   4.0000  12.0107
     59    4 H     1      2.073000      2.116000     15.734000   1.0000   1.0079
     60    4 H     1      6.269000      2.116000     15.740000   1.0000   1.0079
     61    3 C     6      2.965000      2.095000     16.251000   4.0000  12.0107
     62    3 C     6      5.373000      2.095000     16.251000   4.0000  12.0107
     63    3 C     6      2.959000      2.074000     17.674000   4.0000  12.0107
     64    3 C     6      5.367000      2.074000     17.674000   4.0000  12.0107
     65    4 H     1      2.063000      2.053000     18.186000   1.0000   1.0079
     66    4 H     1      6.259000      2.053000     18.192000   1.0000   1.0079
     67    3 C     6      4.157000      2.080000     18.375000   4.0000  12.0107
     68    2 S    16      4.171000      2.086000     20.136000   6.0000  32.0650
     69    1 Au   79      0.000000      0.000000     21.422000  11.0000 196.9666
     70    1 Au   79      0.000000      4.168000     21.422000  11.0000 196.9666
     71    1 Au   79      2.084000      2.084000     21.422000  11.0000 196.9666
     72    1 Au   79      2.084000      6.252000     21.422000  11.0000 196.9666
     73    1 Au   79      4.168000      0.000000     21.422000  11.0000 196.9666
     74    1 Au   79      4.168000      4.168000     21.422000  11.0000 196.9666
     75    1 Au   79      6.252000      2.084000     21.422000  11.0000 196.9666
     76    1 Au   79      6.252000      6.252000     21.422000  11.0000 196.9666
     77    1 Au   79      0.000000      2.084000     23.506000  11.0000 196.9666
     78    1 Au   79      0.000000      6.252000     23.506000  11.0000 196.9666
     79    1 Au   79      2.084000      0.000000     23.506000  11.0000 196.9666
     80    1 Au   79      2.084000      4.168000     23.506000  11.0000 196.9666
     81    1 Au   79      4.168000      2.084000     23.506000  11.0000 196.9666
     82    1 Au   79      4.168000      6.252000     23.506000  11.0000 196.9666
     83    1 Au   79      6.252000      0.000000     23.506000  11.0000 196.9666
     84    1 Au   79      6.252000      4.168000     23.506000  11.0000 196.9666
     85    1 Au   79      0.000000      0.000000     25.590000  11.0000 196.9666
     86    1 Au   79      0.000000      4.168000     25.590000  11.0000 196.9666
     87    1 Au   79      2.084000      2.084000     25.590000  11.0000 196.9666
     88    1 Au   79      2.084000      6.252000     25.590000  11.0000 196.9666
     89    1 Au   79      4.168000      0.000000     25.590000  11.0000 196.9666
     90    1 Au   79      4.168000      4.168000     25.590000  11.0000 196.9666
     91    1 Au   79      6.252000      2.084000     25.590000  11.0000 196.9666
     92    1 Au   79      6.252000      6.252000     25.590000  11.0000 196.9666
     93    1 Au   79      0.000000      2.084000     27.674000  11.0000 196.9666
     94    1 Au   79      0.000000      6.252000     27.674000  11.0000 196.9666
     95    1 Au   79      2.084000      0.000000     27.674000  11.0000 196.9666
     96    1 Au   79      2.084000      4.168000     27.674000  11.0000 196.9666
     97    1 Au   79      4.168000      2.084000     27.674000  11.0000 196.9666
     98    1 Au   79      4.168000      6.252000     27.674000  11.0000 196.9666
     99    1 Au   79      6.252000      0.000000     27.674000  11.0000 196.9666
    100    1 Au   79      6.252000      4.168000     27.674000  11.0000 196.9666
    101    1 Au   79      0.000000      0.000000     29.758000  11.0000 196.9666
    102    1 Au   79      0.000000      4.168000     29.758000  11.0000 196.9666
    103    1 Au   79      2.084000      2.084000     29.758000  11.0000 196.9666
    104    1 Au   79      2.084000      6.252000     29.758000  11.0000 196.9666
    105    1 Au   79      4.168000      0.000000     29.758000  11.0000 196.9666
    106    1 Au   79      4.168000      4.168000     29.758000  11.0000 196.9666
    107    1 Au   79      6.252000      2.084000     29.758000  11.0000 196.9666
    108    1 Au   79      6.252000      6.252000     29.758000  11.0000 196.9666
    109    1 Au   79      0.000000      2.084000     31.842000  11.0000 196.9666
    110    1 Au   79      0.000000      6.252000     31.842000  11.0000 196.9666
    111    1 Au   79      2.084000      0.000000     31.842000  11.0000 196.9666
    112    1 Au   79      2.084000      4.168000     31.842000  11.0000 196.9666
    113    1 Au   79      4.168000      2.084000     31.842000  11.0000 196.9666
    114    1 Au   79      4.168000      6.252000     31.842000  11.0000 196.9666
    115    1 Au   79      6.252000      0.000000     31.842000  11.0000 196.9666
    116    1 Au   79      6.252000      4.168000     31.842000  11.0000 196.9666



 SCF PARAMETERS         Density guess:                                   RESTART
                        --------------------------------------------------------
                        max_scf:                                             500
                        max_scf_history:                                       0
                        max_diis:                                              4
                        --------------------------------------------------------
                        eps_scf:                                        1.00E-07
                        eps_scf_history:                                0.00E+00
                        eps_diis:                                       1.00E-01
                        eps_eigval:                                     1.00E-05
                        --------------------------------------------------------
                        level_shift [a.u.]:                             0.000000
                        added MOs                                       100    0
                        --------------------------------------------------------
                        Mixing method:                            BROYDEN_MIXING
                                                charge density mixing in g-space
                        --------------------------------------------------------
                        Smear method:                                FERMI_DIRAC
                        Electronic temperature [K]:                        293.0
                        Electronic temperature [a.u.]:                  9.28E-04
                        Accuracy threshold:                             1.00E-10
                        --------------------------------------------------------
                        No outer SCF

 PW_GRID| Information for grid number                                          1
 PW_GRID| Grid distributed over                                   240 processors
 PW_GRID| Real space group dimensions                                    12   20
 PW_GRID| the grid is blocked:                                               YES
 PW_GRID| Cutoff [a.u.]                                                    200.0
 PW_GRID| spherical cutoff:                                                   NO
 PW_GRID|   Bounds   1            -52      52                Points:         105
 PW_GRID|   Bounds   2            -52      52                Points:         105
 PW_GRID|   Bounds   3           -210     209                Points:         420
 PW_GRID| Volume element (a.u.^3)  0.3436E-02     Volume (a.u.^3)     15909.0657
 PW_GRID| Grid span                                                    FULLSPACE
 PW_GRID|   Distribution                         Average         Max         Min
 PW_GRID|   G-Vectors                            19293.8       19845       17640
 PW_GRID|   G-Rays                                 183.8         189         168
 PW_GRID|   Real Space Points                    19293.8       19845       17640

 PW_GRID| Information for grid number                                          2
 PW_GRID| Number of the reference grid                                         1
 PW_GRID| Grid distributed over                                   240 processors
 PW_GRID| Real space group dimensions                                    12   20
 PW_GRID| the grid is blocked:                                                NO
 PW_GRID| Cutoff [a.u.]                                                     66.7
 PW_GRID| spherical cutoff:                                                   NO
 PW_GRID|   Bounds   1            -30      29                Points:          60
 PW_GRID|   Bounds   2            -30      29                Points:          60
 PW_GRID|   Bounds   3           -120     119                Points:         240
 PW_GRID| Volume element (a.u.^3)  0.1841E-01     Volume (a.u.^3)     15909.0657
 PW_GRID| Grid span                                                    FULLSPACE
 PW_GRID|   Distribution                         Average         Max         Min
 PW_GRID|   G-Vectors                             3600.0       11340           0
 PW_GRID|   G-Rays                                  60.0         189           0
 PW_GRID|   Real Space Points                     3600.0        3600        3600

 PW_GRID| Information for grid number                                          3
 PW_GRID| Number of the reference grid                                         1
 PW_GRID| Grid distributed over                                   240 processors
 PW_GRID| Real space group dimensions                                    12   20
 PW_GRID| the grid is blocked:                                                NO
 PW_GRID| Cutoff [a.u.]                                                     22.2
 PW_GRID| spherical cutoff:                                                   NO
 PW_GRID|   Bounds   1            -16      16                Points:          33
 PW_GRID|   Bounds   2            -16      16                Points:          33
 PW_GRID|   Bounds   3            -70      69                Points:         140
 PW_GRID| Volume element (a.u.^3)  0.1043         Volume (a.u.^3)     15909.0657
 PW_GRID| Grid span                                                    FULLSPACE
 PW_GRID|   Distribution                         Average         Max         Min
 PW_GRID|   G-Vectors                              635.2        6237           0
 PW_GRID|   G-Rays                                  19.2         189           0
 PW_GRID|   Real Space Points                      635.2         840         280

 PW_GRID| Information for grid number                                          4
 PW_GRID| Number of the reference grid                                         1
 PW_GRID| Grid distributed over                                   240 processors
 PW_GRID| Real space group dimensions                                    12   20
 PW_GRID| the grid is blocked:                                                NO
 PW_GRID| Cutoff [a.u.]                                                      7.4
 PW_GRID| spherical cutoff:                                                   NO
 PW_GRID|   Bounds   1            -10       9                Points:          20
 PW_GRID|   Bounds   2            -10       9                Points:          20
 PW_GRID|   Bounds   3            -40      39                Points:          80
 PW_GRID| Volume element (a.u.^3)  0.4972         Volume (a.u.^3)     15909.0657
 PW_GRID| Grid span                                                    FULLSPACE
 PW_GRID|   Distribution                         Average         Max         Min
 PW_GRID|   G-Vectors                              133.3        3780           0
 PW_GRID|   G-Rays                                   6.7         189           0
 PW_GRID|   Real Space Points                      133.3         160          80

 POISSON| Solver                                                        PERIODIC
 POISSON| Periodicity                                                        XYZ

 RS_GRID| Information for grid number                                          1
 RS_GRID|   Bounds   1            -52      52                Points:         105
 RS_GRID|   Bounds   2            -52      52                Points:         105
 RS_GRID|   Bounds   3           -210     209                Points:         420
 RS_GRID| Real space distribution over                                  8 groups
 RS_GRID| Real space distribution along direction                              2
 RS_GRID| Border size                                                         30
 RS_GRID| Real space distribution over                                 30 groups
 RS_GRID| Real space distribution along direction                              3
 RS_GRID| Border size                                                         30
 RS_GRID|   Distribution                         Average         Max         Min
 RS_GRID|   Planes                                  73.1          74          73
 RS_GRID|   Distribution                         Average         Max         Min
 RS_GRID|   Planes                                  74.0          74          74

 RS_GRID| Information for grid number                                          2
 RS_GRID|   Bounds   1            -30      29                Points:          60
 RS_GRID|   Bounds   2            -30      29                Points:          60
 RS_GRID|   Bounds   3           -120     119                Points:         240
 RS_GRID| Real space distribution over                                  8 groups
 RS_GRID| Real space distribution along direction                              2
 RS_GRID| Border size                                                         22
 RS_GRID| Real space distribution over                                 30 groups
 RS_GRID| Real space distribution along direction                              3
 RS_GRID| Border size                                                         22
 RS_GRID|   Distribution                         Average         Max         Min
 RS_GRID|   Planes                                  51.5          52          51
 RS_GRID|   Distribution                         Average         Max         Min
 RS_GRID|   Planes                                  52.0          52          52

 RS_GRID| Information for grid number                                          3
 RS_GRID|   Bounds   1            -16      16                Points:          33
 RS_GRID|   Bounds   2            -16      16                Points:          33
 RS_GRID|   Bounds   3            -70      69                Points:         140
 RS_GRID| Real space fully replicated
 RS_GRID| Group size                                                           1

 RS_GRID| Information for grid number                                          4
 RS_GRID|   Bounds   1            -10       9                Points:          20
 RS_GRID|   Bounds   2            -10       9                Points:          20
 RS_GRID|   Bounds   3            -40      39                Points:          80
 RS_GRID| Real space fully replicated
 RS_GRID| Group size                                                           1

 KPOINTS| Number of kpoint groups                                              1
 KPOINTS| Size of each kpoint group                                          240
 KPOINTS| Number of kpoints per group                                          4

 Number of electrons:                                                       1184
 Number of occupied orbitals:                                                592
 Number of molecular orbitals:                                               692

 Number of orbital functions:                                               1060
 Number of independent orbital functions:                                   1060

 Extrapolation method: initial_guess


 SCF WAVEFUNCTION OPTIMIZATION

  Step     Update method      Time    Convergence         Total energy    Change
  ------------------------------------------------------------------------------
 SMEAGOL DEBUG| Number of electrons in the unit cell =      1183.9999999944
     1 NoMix/SMGL  0.30E+00  146.5    14.91611724     -3518.2829478965 -3.52E+03
 SMEAGOL DEBUG| Number of electrons in the unit cell =      1100.1052846935
     2 Broy./SMGL  0.30E+00   66.4    20.63602162     -3620.3040958074 -1.02E+02
 SMEAGOL DEBUG| Number of electrons in the unit cell =      1093.5995660309
     3 Broy./SMGL  0.30E+00   64.8    14.43515875     -3624.7233384165 -4.42E+00
 SMEAGOL DEBUG| Number of electrons in the unit cell =      1128.5092895211
     4 Broy./SMGL  0.30E+00   65.9    21.31380768     -3309.0846127535  3.16E+02
 SMEAGOL DEBUG| Number of electrons in the unit cell =      1128.1441437480
     5 Broy./SMGL  0.30E+00   65.0    20.82277345     -3557.1765194073 -2.48E+02
 SMEAGOL DEBUG| Number of electrons in the unit cell =      1142.8141949442
     6 Broy./SMGL  0.30E+00   66.5     2.22747394     -3430.0474609181  1.27E+02
 SMEAGOL DEBUG| Number of electrons in the unit cell =      1164.0035970980
     7 Broy./SMGL  0.30E+00   65.1     7.46849193     -3431.8658928627 -1.82E+00
 SMEAGOL DEBUG| Number of electrons in the unit cell =      1165.9155266473
     8 Broy./SMGL  0.30E+00   65.9     0.71377470     -3475.8367526163 -4.40E+01
 SMEAGOL DEBUG| Number of electrons in the unit cell =      1176.4903501546
     9 Broy./SMGL  0.30E+00   65.7     4.48379829     -3475.0608297054  7.76E-01
 SMEAGOL DEBUG| Number of electrons in the unit cell =      1177.9074763100
    10 Broy./SMGL  0.30E+00   65.6     0.59006720     -3487.7399820264 -1.27E+01
 SMEAGOL DEBUG| Number of electrons in the unit cell =      1202.0803082415
    11 Broy./SMGL  0.30E+00   66.0     3.88120208     -3499.7285122544 -1.20E+01
 SMEAGOL DEBUG| Number of electrons in the unit cell =      1190.3977800941
    12 Broy./SMGL  0.30E+00   65.0     5.82458084     -3703.9912152181 -2.04E+02
 SMEAGOL DEBUG| Number of electrons in the unit cell =      1191.0417712230
    13 Broy./SMGL  0.30E+00   65.8    15.04749527     -3529.6915474216  1.74E+02
 SMEAGOL DEBUG| Number of electrons in the unit cell =      1175.9658432206
    14 Broy./SMGL  0.30E+00   65.3    13.32267901     -3633.0342777783 -1.03E+02
 SMEAGOL DEBUG| Number of electrons in the unit cell =      1186.6257567676
    15 Broy./SMGL  0.30E+00   66.0     1.63566263     -3483.3855226599  1.50E+02
 SMEAGOL DEBUG| Number of electrons in the unit cell =      1184.1939999666
    16 Broy./SMGL  0.30E+00   64.7     0.51791549     -3510.5537120193 -2.72E+01
 SMEAGOL DEBUG| Number of electrons in the unit cell =      1184.6771162032
    17 Broy./SMGL  0.30E+00   65.1     0.13595292     -3501.5786165014  8.98E+00
 SMEAGOL DEBUG| Number of electrons in the unit cell =      1184.2286997718
    18 Broy./SMGL  0.30E+00   64.6     0.07809445     -3508.3149844474 -6.74E+00
 SMEAGOL DEBUG| Number of electrons in the unit cell =      1183.5713707427
    19 Broy./SMGL  0.30E+00   65.7     0.18671625     -3506.7356065535  1.58E+00
 SMEAGOL DEBUG| Number of electrons in the unit cell =      1183.3169057320
    20 Broy./SMGL  0.30E+00   66.6     0.18896169     -3506.7076157929  2.80E-02
 SMEAGOL DEBUG| Number of electrons in the unit cell =      1183.6140992874
    21 Broy./SMGL  0.30E+00   65.3     0.27632104     -3506.2948532838  4.13E-01
 SMEAGOL DEBUG| Number of electrons in the unit cell =      1184.0679242842
    22 Broy./SMGL  0.30E+00   64.9     0.15939610     -3510.0024945563 -3.71E+00
 SMEAGOL DEBUG| Number of electrons in the unit cell =      1186.5659038260
    23 Broy./SMGL  0.30E+00   64.7     7.29999838     -3512.2725742036 -2.27E+00
 SMEAGOL DEBUG| Number of electrons in the unit cell =      1183.4006640269
    24 Broy./SMGL  0.30E+00   65.8     7.08778429     -3574.8682057290 -6.26E+01
 SMEAGOL DEBUG| Number of electrons in the unit cell =      1183.5371633918
    25 Broy./SMGL  0.30E+00   64.7     0.25861940     -3510.3310660424  6.45E+01
 SMEAGOL DEBUG| Number of electrons in the unit cell =      1183.6273430356
    26 Broy./SMGL  0.30E+00   66.3     0.04712386     -3511.3216820260 -9.91E-01
 SMEAGOL DEBUG| Number of electrons in the unit cell =      1183.6294186412
    27 Broy./SMGL  0.30E+00   64.8     0.09665374     -3512.0489619242 -7.27E-01
 SMEAGOL DEBUG| Number of electrons in the unit cell =      1183.7445358700
    28 Broy./SMGL  0.30E+00   65.2     0.03699220     -3512.9386501333 -8.90E-01
 SMEAGOL DEBUG| Number of electrons in the unit cell =      1183.7753636592
    29 Broy./SMGL  0.30E+00   66.1     0.03646096     -3513.5822827624 -6.44E-01
 SMEAGOL DEBUG| Number of electrons in the unit cell =      1184.0389891958
    30 Broy./SMGL  0.30E+00   65.8     0.12925080     -3512.7692013410  8.13E-01
 SMEAGOL DEBUG| Number of electrons in the unit cell =      1184.2555536915
    31 Broy./SMGL  0.30E+00   66.2     0.09317625     -3513.9177648561 -1.15E+00
 SMEAGOL DEBUG| Number of electrons in the unit cell =      1184.4011175270
    32 Broy./SMGL  0.30E+00   65.1     0.07542820     -3514.9972557884 -1.08E+00
 SMEAGOL DEBUG| Number of electrons in the unit cell =      1185.0233566591
    33 Broy./SMGL  0.30E+00   65.8    18.30049862     -3515.5134547989 -5.16E-01
 SMEAGOL DEBUG| Number of electrons in the unit cell =      1176.1041681229
    34 Broy./SMGL  0.30E+00   65.1    15.04549703     -3672.8498006637 -1.57E+02
 SMEAGOL DEBUG| Number of electrons in the unit cell =      1174.9589568901
    35 Broy./SMGL  0.30E+00   65.0     2.79451387     -3487.9703319497  1.85E+02
 SMEAGOL DEBUG| Number of electrons in the unit cell =      1177.4356580456
    36 Broy./SMGL  0.30E+00   65.1     2.59513131     -3477.9087994454  1.01E+01
 SMEAGOL DEBUG| Number of electrons in the unit cell =      1174.2371999611
    37 Broy./SMGL  0.30E+00   65.8     2.70815686     -3489.1376024969 -1.12E+01
 SMEAGOL DEBUG| Number of electrons in the unit cell =      1173.6589924088
    38 Broy./SMGL  0.30E+00   65.3     0.82011218     -3476.3285885099  1.28E+01
 SMEAGOL DEBUG| Number of electrons in the unit cell =      1174.5536508795
    39 Broy./SMGL  0.30E+00   66.3     0.53153305     -3471.7561769052  4.57E+00
 SMEAGOL DEBUG| Number of electrons in the unit cell =      1175.5989386721
    40 Broy./SMGL  0.30E+00   66.0     2.28387389     -3475.6313942742 -3.88E+00
 SMEAGOL DEBUG| Number of electrons in the unit cell =      1176.5276278779
    41 Broy./SMGL  0.30E+00   64.8     0.94223248     -3483.6832540609 -8.05E+00
 SMEAGOL DEBUG| Number of electrons in the unit cell =      1177.1659812756
    42 Broy./SMGL  0.30E+00   65.9     1.39613030     -3486.0531308886 -2.37E+00
 SMEAGOL DEBUG| Number of electrons in the unit cell =      1188.3021816551
    43 Broy./SMGL  0.30E+00   65.5     5.91561892     -3488.4018758994 -2.35E+00
 SMEAGOL DEBUG| Number of electrons in the unit cell =      1185.3985776883
    44 Broy./SMGL  0.30E+00   66.3     3.75520775     -3665.7042375437 -1.77E+02
 SMEAGOL DEBUG| Number of electrons in the unit cell =      1177.6822545330
    45 Broy./SMGL  0.30E+00   65.1     2.61679341     -3549.8501373422  1.16E+02
 SMEAGOL DEBUG| Number of electrons in the unit cell =      1180.4758933313
    46 Broy./SMGL  0.30E+00   65.1     2.48245434     -3491.7361333431  5.81E+01
 SMEAGOL DEBUG| Number of electrons in the unit cell =      1181.5189214363
    47 Broy./SMGL  0.30E+00   64.6     0.38869342     -3500.6218946818 -8.89E+00
 SMEAGOL DEBUG| Number of electrons in the unit cell =      1182.1737541536
    48 Broy./SMGL  0.30E+00   66.6     0.22608551     -3501.9507672445 -1.33E+00
 SMEAGOL DEBUG| Number of electrons in the unit cell =      1182.5053604154
    49 Broy./SMGL  0.30E+00   64.9     0.09919840     -3504.6916219588 -2.74E+00
 SMEAGOL DEBUG| Number of electrons in the unit cell =      1183.2585244542
    50 Broy./SMGL  0.30E+00   65.9     0.39868010     -3505.3702607140 -6.79E-01
 SMEAGOL DEBUG| Number of electrons in the unit cell =      1184.4579437035
    51 Broy./SMGL  0.30E+00   66.2     0.60111738     -3507.1184037307 -1.75E+00
 SMEAGOL DEBUG| Number of electrons in the unit cell =      1184.2138949812
    52 Broy./SMGL  0.30E+00   64.9     0.09897885     -3512.8240686429 -5.71E+00
 SMEAGOL DEBUG| Number of electrons in the unit cell =      1183.4094523489
    53 Broy./SMGL  0.30E+00   64.9     0.17115567     -3512.8975823987 -7.35E-02
 SMEAGOL DEBUG| Number of electrons in the unit cell =      1184.8038156868
    54 Broy./SMGL  0.30E+00   65.0    19.22417682     -3511.0895098934  1.81E+00
 SMEAGOL DEBUG| Number of electrons in the unit cell =      1162.7431789146
    55 Broy./SMGL  0.30E+00   66.2    15.25549328     -3656.9030448713 -1.46E+02
 SMEAGOL DEBUG| Number of electrons in the unit cell =      1162.6551473475
    56 Broy./SMGL  0.30E+00   65.1     1.02256069     -3453.4615331839  2.03E+02
 SMEAGOL DEBUG| Number of electrons in the unit cell =      1165.3941819051
    57 Broy./SMGL  0.30E+00   69.5     0.82002062     -3457.1341127841 -3.67E+00
 SMEAGOL DEBUG| Number of electrons in the unit cell =      1166.9090920288
    58 Broy./SMGL  0.30E+00   66.2     0.42943535     -3448.7185634385  8.42E+00
 SMEAGOL DEBUG| Number of electrons in the unit cell =      1168.0484476346
    59 Broy./SMGL  0.30E+00   65.7     1.89113044     -3459.1370175535 -1.04E+01
 SMEAGOL DEBUG| Number of electrons in the unit cell =      1169.3862777895
    60 Broy./SMGL  0.30E+00   64.8     1.42569733     -3462.7765416534 -3.64E+00
 SMEAGOL DEBUG| Number of electrons in the unit cell =      1170.4903036459
    61 Broy./SMGL  0.30E+00   65.8     2.29510715     -3463.7281769139 -9.52E-01
 SMEAGOL DEBUG| Number of electrons in the unit cell =      1171.5164799206
    62 Broy./SMGL  0.30E+00   67.0     1.22692670     -3469.5053652964 -5.78E+00
 SMEAGOL DEBUG| Number of electrons in the unit cell =      1173.3827272341
    63 Broy./SMGL  0.30E+00   65.7     1.98656800     -3471.1552997760 -1.65E+00
 SMEAGOL DEBUG| Number of electrons in the unit cell =      1195.1615582208
    64 Broy./SMGL  0.30E+00   65.8     6.26491035     -3483.4937843830 -1.23E+01
 SMEAGOL DEBUG| Number of electrons in the unit cell =      1192.0514217778
    65 Broy./SMGL  0.30E+00   64.7     1.48284048     -3666.2050209950 -1.83E+02
 SMEAGOL DEBUG| Number of electrons in the unit cell =      1192.0078610629
    66 Broy./SMGL  0.30E+00   66.0     0.26738179     -3663.4817641264  2.72E+00
 SMEAGOL DEBUG| Number of electrons in the unit cell =      1190.2942570407
    67 Broy./SMGL  0.30E+00   65.8     4.19299325     -3661.9913733439  1.49E+00
 SMEAGOL DEBUG| Number of electrons in the unit cell =      1174.4597226699
    68 Broy./SMGL  0.30E+00   66.0     6.51411078     -3653.7471453103  8.24E+00
 SMEAGOL DEBUG| Number of electrons in the unit cell =      1176.5585935204
    69 Broy./SMGL  0.30E+00   65.3     3.12145172     -3474.1956632292  1.80E+02
 SMEAGOL DEBUG| Number of electrons in the unit cell =      1179.0618708544
    70 Broy./SMGL  0.30E+00   65.9     2.02937168     -3479.8832635751 -5.69E+00
 SMEAGOL DEBUG| Number of electrons in the unit cell =      1182.3515102278
    71 Broy./SMGL  0.30E+00   65.7     2.01195237     -3482.8559404822 -2.97E+00
 SMEAGOL DEBUG| Number of electrons in the unit cell =      1183.4430504392
    72 Broy./SMGL  0.30E+00   64.7     0.57753217     -3490.7600168671 -7.90E+00
 SMEAGOL DEBUG| Number of electrons in the unit cell =      1183.4079752448
    73 Broy./SMGL  0.30E+00   65.9     0.22076695     -3494.1194759827 -3.36E+00
 SMEAGOL DEBUG| Number of electrons in the unit cell =      1184.2632891219
    74 Broy./SMGL  0.30E+00   64.8     0.53458538     -3493.3542550781  7.65E-01
 SMEAGOL DEBUG| Number of electrons in the unit cell =      1183.6016245436
    75 Broy./SMGL  0.30E+00   65.7     0.22678044     -3499.0566070224 -5.70E+00
 SMEAGOL DEBUG| Number of electrons in the unit cell =      1183.3345904575
    76 Broy./SMGL  0.30E+00   64.7     0.09190267     -3499.5978030569 -5.41E-01
 SMEAGOL DEBUG| Number of electrons in the unit cell =      1185.3700974018
    77 Broy./SMGL  0.30E+00   67.2     8.34204232     -3504.8594323229 -5.26E+00
 SMEAGOL DEBUG| Number of electrons in the unit cell =      1178.8702884335
    78 Broy./SMGL  0.30E+00   65.2     6.47903427     -3581.5730102119 -7.67E+01
 SMEAGOL DEBUG| Number of electrons in the unit cell =      1181.9874706760
    79 Broy./SMGL  0.30E+00   65.4     2.06816007     -3494.0088321781  8.76E+01
 SMEAGOL DEBUG| Number of electrons in the unit cell =      1182.6595112038
    80 Broy./SMGL  0.30E+00   65.9     0.23138868     -3507.0763447381 -1.31E+01
 SMEAGOL DEBUG| Number of electrons in the unit cell =      1183.4639101159
    81 Broy./SMGL  0.30E+00   66.7     0.38912893     -3507.0353409325  4.10E-02
 SMEAGOL DEBUG| Number of electrons in the unit cell =      1183.5823736882
    82 Broy./SMGL  0.30E+00   65.3     0.08941452     -3511.8170359049 -4.78E+00
 SMEAGOL DEBUG| Number of electrons in the unit cell =      1183.5221572887
    83 Broy./SMGL  0.30E+00   65.0     0.07307047     -3512.2247515343 -4.08E-01
 SMEAGOL DEBUG| Number of electrons in the unit cell =      1184.1658246091
    84 Broy./SMGL  0.30E+00   65.8     0.37365771     -3511.0244440867  1.20E+00
 SMEAGOL DEBUG| Number of electrons in the unit cell =      1184.1403252020
    85 Broy./SMGL  0.30E+00   64.6     0.00969594     -3515.8968844324 -4.87E+00
 SMEAGOL DEBUG| Number of electrons in the unit cell =      1184.6078107726
    86 Broy./SMGL  0.30E+00   67.2     2.68659154     -3515.7594378408  1.37E-01
 SMEAGOL DEBUG| Number of electrons in the unit cell =      1185.1280125075
    87 Broy./SMGL  0.30E+00   65.7    15.84036104     -3540.3382349698 -2.46E+01
 SMEAGOL DEBUG| Number of electrons in the unit cell =      1182.4575415781
    88 Broy./SMGL  0.30E+00   70.7    17.55008934     -3647.5467339759 -1.07E+02
 SMEAGOL DEBUG| Number of electrons in the unit cell =      1182.9223840175
    89 Broy./SMGL  0.30E+00   67.5     0.29166050     -3507.7693149249  1.40E+02
 SMEAGOL DEBUG| Number of electrons in the unit cell =      1183.2208885901
    90 Broy./SMGL  0.30E+00   65.6     0.17187503     -3508.4434886364 -6.74E-01
 SMEAGOL DEBUG| Number of electrons in the unit cell =      1183.4390816500
    91 Broy./SMGL  0.30E+00   64.6     0.12249918     -3509.1539788781 -7.10E-01
 SMEAGOL DEBUG| Number of electrons in the unit cell =      1183.5819110901
    92 Broy./SMGL  0.30E+00   66.0     0.11277629     -3511.2233228952 -2.07E+00
 SMEAGOL DEBUG| Number of electrons in the unit cell =      1183.6515803756
    93 Broy./SMGL  0.30E+00   66.4     0.03505227     -3511.6352954807 -4.12E-01
 SMEAGOL DEBUG| Number of electrons in the unit cell =      1183.6906769001
    94 Broy./SMGL  0.30E+00   64.5     0.03210806     -3512.1570656043 -5.22E-01
 SMEAGOL DEBUG| Number of electrons in the unit cell =      1183.8281282578
    95 Broy./SMGL  0.30E+00   65.0     0.12561935     -3512.1588593301 -1.79E-03
 SMEAGOL DEBUG| Number of electrons in the unit cell =      1183.9872996114
    96 Broy./SMGL  0.30E+00   65.6     0.14967120     -3513.5833390927 -1.42E+00
 SMEAGOL DEBUG| Number of electrons in the unit cell =      1184.7908093366
    97 Broy./SMGL  0.30E+00   65.7    21.25109695     -3513.9549457644 -3.72E-01
 SMEAGOL DEBUG| Number of electrons in the unit cell =      1177.8687662475
    98 Broy./SMGL  0.30E+00   64.8    18.14677116     -3677.9545322094 -1.64E+02
 SMEAGOL DEBUG| Number of electrons in the unit cell =      1177.3200335635
    99 Broy./SMGL  0.30E+00   66.0     0.28029603     -3488.6890458249  1.89E+02
 SMEAGOL DEBUG| Number of electrons in the unit cell =      1177.5660673279
   100 Broy./SMGL  0.30E+00   65.6     0.65745367     -3493.7750708079 -5.09E+00
 SMEAGOL DEBUG| Number of electrons in the unit cell =      1178.3427299751
   101 Broy./SMGL  0.30E+00   65.3     0.80069656     -3493.1852951537  5.90E-01
 SMEAGOL DEBUG| Number of electrons in the unit cell =      1178.6385488710
   102 Broy./SMGL  0.30E+00   65.2     0.21250976     -3492.4839923158  7.01E-01
 SMEAGOL DEBUG| Number of electrons in the unit cell =      1178.8057102905
   103 Broy./SMGL  0.30E+00   65.6     0.12466919     -3495.1713260790 -2.69E+00
 SMEAGOL DEBUG| Number of electrons in the unit cell =      1179.2327658693
   104 Broy./SMGL  0.30E+00  100.2     0.11161124     -3496.3061392114 -1.13E+00
 SMEAGOL DEBUG| Number of electrons in the unit cell =      1179.8335910322
   105 Broy./SMGL  0.30E+00   65.8     0.39351135     -3497.6289400334 -1.32E+00
 SMEAGOL DEBUG| Number of electrons in the unit cell =      1181.0276782775
   106 Broy./SMGL  0.30E+00   65.7     0.65809549     -3498.2176783509 -5.89E-01
 SMEAGOL DEBUG| Number of electrons in the unit cell =      1189.5067399734
   107 Broy./SMGL  0.30E+00   65.2     6.90436661     -3499.5775027259 -1.36E+00
 SMEAGOL DEBUG| Number of electrons in the unit cell =      1186.8692879939
   108 Broy./SMGL  0.30E+00   66.0     3.10524588     -3659.7335318997 -1.60E+02
 SMEAGOL DEBUG| Number of electrons in the unit cell =      1177.2795651459
   109 Broy./SMGL  0.30E+00   65.1     3.66272377     -3550.1730047738  1.10E+02
 SMEAGOL DEBUG| Number of electrons in the unit cell =      1181.0301076738
   110 Broy./SMGL  0.30E+00   65.4     2.69291411     -3498.5623715233  5.16E+01
 SMEAGOL DEBUG| Number of electrons in the unit cell =      1183.5444428629
   111 Broy./SMGL  0.30E+00   65.0     1.03583323     -3502.2053742823 -3.64E+00
 SMEAGOL DEBUG| Number of electrons in the unit cell =      1183.6101592407
   112 Broy./SMGL  0.30E+00   65.6     0.08996895     -3512.3419849493 -1.01E+01
 SMEAGOL DEBUG| Number of electrons in the unit cell =      1183.8004820284
   113 Broy./SMGL  0.30E+00   65.4     0.16219253     -3512.3047119088  3.73E-02
 SMEAGOL DEBUG| Number of electrons in the unit cell =      1183.7086967606
   114 Broy./SMGL  0.30E+00   64.7     0.03216605     -3513.1891752936 -8.84E-01
 SMEAGOL DEBUG| Number of electrons in the unit cell =      1184.3494053553
   115 Broy./SMGL  0.30E+00   66.5     0.34634279     -3512.2805564054  9.09E-01
 SMEAGOL DEBUG| Number of electrons in the unit cell =      1184.4551190859
   116 Broy./SMGL  0.30E+00   65.1     0.08174158     -3515.6783836871 -3.40E+00
 SMEAGOL DEBUG| Number of electrons in the unit cell =      1184.5330487263
   117 Broy./SMGL  0.30E+00   65.8     0.03491248     -3518.1434943339 -2.47E+00
[...]
     13       Au     1      11.000         11.000                         0.000
     14       Au     1      11.000         11.000                         0.000
     15       Au     1      11.000         11.000                         0.000
     16       Au     1      11.000         11.000                         0.000
     17       Au     1      11.000         10.999                         0.001
     18       Au     1      11.000         10.999                         0.001
     19       Au     1      11.000         10.999                         0.001
     20       Au     1      11.000         10.999                         0.001
     21       Au     1      11.000         10.999                         0.001
     22       Au     1      11.000         10.999                         0.001
     23       Au     1      11.000         10.999                         0.001
     24       Au     1      11.000         10.999                         0.001
     25       Au     1      11.000         11.008                        -0.008
     26       Au     1      11.000         11.007                        -0.007
     27       Au     1      11.000         11.006                        -0.006
     28       Au     1      11.000         11.007                        -0.007
     29       Au     1      11.000         11.008                        -0.008
     30       Au     1      11.000         11.008                        -0.008
     31       Au     1      11.000         11.006                        -0.006
     32       Au     1      11.000         11.006                        -0.006
     33       Au     1      11.000         10.992                         0.008
     34       Au     1      11.000         10.992                         0.008
     35       Au     1      11.000         10.993                         0.007
     36       Au     1      11.000         10.994                         0.006
     37       Au     1      11.000         10.994                         0.006
     38       Au     1      11.000         10.994                         0.006
     39       Au     1      11.000         10.993                         0.007
     40       Au     1      11.000         10.994                         0.006
     41       Au     1      11.000         10.989                         0.011
     42       Au     1      11.000         10.984                         0.016
     43       Au     1      11.000         10.988                         0.012
     44       Au     1      11.000         10.988                         0.012
     45       Au     1      11.000         10.991                         0.009
     46       Au     1      11.000         10.994                         0.006
     47       Au     1      11.000         10.988                         0.012
     48       Au     1      11.000         10.988                         0.012
     49       Au     1      11.000         11.000                         0.000
     50       Au     1      11.000         11.000                         0.000
     51       Au     1      11.000         10.941                         0.059
     52       Au     1      11.000         10.999                         0.001
     53       Au     1      11.000         10.949                         0.051
     54       Au     1      11.000         10.949                         0.051
     55       Au     1      11.000         10.941                         0.059
     56       Au     1      11.000         10.998                         0.002
     57       S      2       6.000          5.968                         0.032
     58       C      3       4.000          4.055                        -0.055
     59       H      4       1.000          0.972                         0.028
     60       H      4       1.000          0.971                         0.029
     61       C      3       4.000          4.062                        -0.062
     62       C      3       4.000          4.065                        -0.065
     63       C      3       4.000          4.039                        -0.039
     64       C      3       4.000          4.037                        -0.037
     65       H      4       1.000          0.953                         0.047
     66       H      4       1.000          0.954                         0.046
     67       C      3       4.000          4.007                        -0.007
     68       S      2       6.000          6.028                        -0.028
     69       Au     1      11.000         11.072                        -0.072
     70       Au     1      11.000         11.071                        -0.071
     71       Au     1      11.000         10.979                         0.021
     72       Au     1      11.000         11.062                        -0.062
     73       Au     1      11.000         10.976                         0.024
     74       Au     1      11.000         10.976                         0.024
     75       Au     1      11.000         10.978                         0.022
     76       Au     1      11.000         11.062                        -0.062
     77       Au     1      11.000         10.981                         0.019
     78       Au     1      11.000         10.992                         0.008
     79       Au     1      11.000         10.987                         0.013
     80       Au     1      11.000         10.987                         0.013
     81       Au     1      11.000         10.994                         0.006
     82       Au     1      11.000         10.980                         0.020
     83       Au     1      11.000         10.987                         0.013
     84       Au     1      11.000         10.987                         0.013
     85       Au     1      11.000         11.016                        -0.016
     86       Au     1      11.000         11.016                        -0.016
     87       Au     1      11.000         11.017                        -0.017
     88       Au     1      11.000         11.016                        -0.016
     89       Au     1      11.000         11.018                        -0.018
     90       Au     1      11.000         11.018                        -0.018
     91       Au     1      11.000         11.017                        -0.017
     92       Au     1      11.000         11.016                        -0.016
     93       Au     1      11.000         10.997                         0.003
     94       Au     1      11.000         10.996                         0.004
     95       Au     1      11.000         10.997                         0.003
     96       Au     1      11.000         10.997                         0.003
     97       Au     1      11.000         10.998                         0.002
     98       Au     1      11.000         10.997                         0.003
     99       Au     1      11.000         10.997                         0.003
    100       Au     1      11.000         10.997                         0.003
    101       Au     1      11.000         11.000                         0.000
    102       Au     1      11.000         11.000                         0.000
    103       Au     1      11.000         11.000                         0.000
    104       Au     1      11.000         11.000                         0.000
    105       Au     1      11.000         11.000                         0.000
    106       Au     1      11.000         11.000                         0.000
    107       Au     1      11.000         11.000                         0.000
    108       Au     1      11.000         11.000                         0.000
    109       Au     1      11.000         11.000                         0.000
    110       Au     1      11.000         11.000                         0.000
    111       Au     1      11.000         11.000                         0.000
    112       Au     1      11.000         11.000                        -0.000
    113       Au     1      11.000         11.000                        -0.000
    114       Au     1      11.000         11.000                        -0.000
    115       Au     1      11.000         11.000                         0.000
    116       Au     1      11.000         11.000                        -0.000

  Total Charge                                                            0.027
 !-----------------------------------------------------------------------------!
 Calculating transmission coefficient

 ENERGY| Total FORCE_EVAL ( QS ) energy [a.u.]:            -3518.065946157229519

 -------------------------------------------------------------------------------
 -                                                                             -
 -                                DBCSR STATISTICS                             -
 -                                                                             -
 -------------------------------------------------------------------------------
 COUNTER                                    TOTAL       BLAS       SMM       ACC
 flops inhomo. stacks                           0       0.0%      0.0%      0.0%
 flops total                         0.000000E+00       0.0%      0.0%      0.0%
 flops max/rank                      0.000000E+00       0.0%      0.0%      0.0%
 matmuls inhomo. stacks                         0       0.0%      0.0%      0.0%
 matmuls total                                  0       0.0%      0.0%      0.0%
 number of processed stacks                     0       0.0%      0.0%      0.0%
 average stack size                                     0.0       0.0       0.0
 marketing flops                     0.000000E+00
 -------------------------------------------------------------------------------
 -                                                                             -
 -                      DBCSR MESSAGE PASSING PERFORMANCE                      -
 -                                                                             -
 -------------------------------------------------------------------------------
 ROUTINE             CALLS      AVE VOLUME [Bytes]
 MP_Bcast                1                     12.
 MP_Allreduce        22153                      8.
 MP_Alltoall         14467                 174633.
 -------------------------------------------------------------------------------

 -------------------------------------------------------------------------------
 -                                                                             -
 -                                DBM STATISTICS                               -
 -                                                                             -
 -------------------------------------------------------------------------------
    M  x    N  x    K                                          COUNT     PERCENT
 -------------------------------------------------------------------------------

 -------------------------------------------------------------------------------
 -                                                                             -
 -                                GRID STATISTICS                              -
 -                                                                             -
 -------------------------------------------------------------------------------
 LP    KERNEL             BACKEND                              COUNT     PERCENT
 4     collocate ortho    REF                               22143350      47.35%
 4     integrate ortho    REF                               22041775      47.13%
 3     collocate ortho    REF                                 969446       2.07%
 3     integrate ortho    REF                                 964999       2.06%
 0     collocate general  REF                                 250560       0.54%
 0     integrate general  REF                                 222720       0.48%
 2     collocate ortho    REF                                  86328       0.18%
 2     integrate ortho    REF                                  85932       0.18%
 -------------------------------------------------------------------------------

 MEMORY| Estimated peak process memory [MiB]                                1029

 -------------------------------------------------------------------------------
 ----                             MULTIGRID INFO                            ----
 -------------------------------------------------------------------------------
 count for grid        1:        1699776          cutoff [a.u.]          200.00
 count for grid        2:        2260471          cutoff [a.u.]           66.67
 count for grid        3:        1204019          cutoff [a.u.]           22.22
 count for grid        4:         414152          cutoff [a.u.]            7.41
 total gridlevel count  :        5578418

 -------------------------------------------------------------------------------
 -                                                                             -
 -                         MESSAGE PASSING PERFORMANCE                         -
 -                                                                             -
 -------------------------------------------------------------------------------

 ROUTINE             CALLS      AVE VOLUME [Bytes]
 MP_Group                5
 MP_Bcast           159123                   8801.
 MP_Allreduce        17563                 940013.
 MP_Sync              2614
 MP_Alltoall          3931              678983404.
 MP_ISendRecv       207930                   4000.
 MP_Wait            257232
 MP_ISend            70991                  37147.
 MP_IRecv            71089                  37099.
 MP_Recv             18513                 271360.
 MP_Write_All            2                 248850.
 -------------------------------------------------------------------------------


 -------------------------------------------------------------------------------
 -                                                                             -
 -                           R E F E R E N C E S                               -
 -                                                                             -
 -------------------------------------------------------------------------------
 
 CP2K version 2022.1 (Development Version), the CP2K developers group (2022).
 CP2K is freely available from https://www.cp2k.org/ .

 Kuehne,Thomas D.; Iannuzzi,Marcella; Del Ben,Mauro;
 Rybkin,Vladimir V.; Seewald,Patrick; Stein,Frederick; Laino,Teodoro;
 Khaliullin,Rustam Z.; Schuett,Ole; Schiffmann,Florian; Golze,Dorothea;
 Wilhelm,Jan; Chulkov,Sergey; Bani-Hashemian,Mohammad Hossein;
 Weber,Valery; Borstnik,Urban; Taillefumier,Mathieu;
 Jakobovits,Alice Shoshana; Lazzaro,Alfio; Pabst,Hans; Mueller,Tiziano;
 Schade,Robert; Guidon,Manuel; Andermatt,Samuel; Holmberg,Nico;
 Schenter,Gregory K.; Hehn,Anna; Bussy,Augustin; Belleflamme,Fabian;
 Tabacchi,Gloria; Gloess,Andreas; Lass,Michael; Bethune,Iain;
 Mundy,Christopher J.; Plessl,Christian; Watkins,Matt;
 VandeVondele,Joost; Krack,Matthias; Hutter,Juerg. 
 The Journal of Chemical Physics, 152 (19), (2020). 
 CP2K: An electronic structure and molecular dynamics software package -
 Quickstep: Efficient and accurate electronic structure calculations.
 https://doi.org/10.1063/5.0007045

 Togo, Atsushi; Tanaka, Isao. arXiv, 1808.01590 (2018). 
 Spglib : a software library for crystal symmetry search.
 https://doi.org/xxx

 Schuett, Ole; Messmer, Peter; Hutter, Juerg; VandeVondele, Joost. 
 Electronic Structure Calculations on Graphics Processing Units, John
 Wiley & Sons, Ltd, 173-190 (2016). 
 GPU-Accelerated Sparse Matrix-Matrix Multiplication for
 Linear Scaling Density Functional Theory.
 https://doi.org/10.1002/9781118670712.ch8

 Heinecke, A; Henry, G; Hutchinson, M; Pabst, H. 
 Proceedings of Intl. Supercomputing Conference, 981-991 (2016). 
 LIBXSMM: Accelerating Small Matrix Multiplications
 by Runtime Code Generation.
 https://doi.org/10.1109/SC.2016.83

 Borstnik, U; VandeVondele, J; Weber, V; Hutter, J. 
 PARALLEL COMPUTING, 40 (5-6), 47-58 (2014). 
 Sparse matrix multiplication: The distributed block-compressed sparse
 row library.
 https://doi.org/10.1016/j.parco.2014.03.012

 Hutter, J; Iannuzzi, M; Schiffmann, F; VandeVondele, J. 
 WIREs Comput Mol Sci., 4 (1), 15-25 (2014). 
 CP2K: atomistic simulations of condensed matter systems.
 https://doi.org/10.1002/wcms.1159

 VandeVondele, J; Hutter, J. 
 JOURNAL OF CHEMICAL PHYSICS, 127 (11), 114105 (2007). 
 Gaussian basis sets for accurate calculations on molecular systems in
 gas and condensed phases.
 https://doi.org/10.1063/1.2770708

 Krack, M. 
 THEORETICAL CHEMISTRY ACCOUNTS, 114 (1-3), 145-152 (2005). 
 Pseudopotentials for H to Kr optimized for gradient-corrected
 exchange-correlation functionals.
 https://doi.org/10.1007/s00214-005-0655-y

 VandeVondele, J; Krack, M; Mohamed, F; Parrinello, M; Chassaing, T;
 Hutter, J. COMPUTER PHYSICS COMMUNICATIONS, 167 (2), 103-128 (2005). 
 QUICKSTEP: Fast and accurate density functional calculations using a
 mixed Gaussian and plane waves approach.
 https://doi.org/10.1016/j.cpc.2004.12.014

 Frigo, M; Johnson, SG. 
 PROCEEDINGS OF THE IEEE, 93 (2), 216-231 (2005). 
 The design and implementation of FFTW3.
 https://doi.org/10.1109/JPROC.2004.840301

 Hartwigsen, C; Goedecker, S; Hutter, J. 
 PHYSICAL REVIEW B, 58 (7), 3641-3662 (1998). 
 Relativistic separable dual-space Gaussian pseudopotentials from H to Rn.
 https://doi.org/10.1103/PhysRevB.58.3641

 Lippert, G; Hutter, J; Parrinello, M. 
 MOLECULAR PHYSICS, 92 (3), 477-487 (1997). 
 A hybrid Gaussian and plane wave density functional scheme.
 https://doi.org/10.1080/002689797170220

 Goedecker, S; Teter, M; Hutter, J. 
 PHYSICAL REVIEW B, 54 (3), 1703-1710 (1996). 
 Separable dual-space Gaussian pseudopotentials.
 https://doi.org/10.1103/PhysRevB.54.1703


 -------------------------------------------------------------------------------
 -                                                                             -
 -                                T I M I N G                                  -
 -                                                                             -
 -------------------------------------------------------------------------------
 SUBROUTINE                       CALLS  ASD         SELF TIME        TOTAL TIME
                                MAXIMUM       AVERAGE  MAXIMUM  AVERAGE  MAXIMUM
 CP2K                                 1  1.0     0.04     0.05 14496.17 14496.22
 qs_energies                          1  2.0     0.00     0.00 14495.87 14495.94
 scf_env_do_scf                       1  3.0     0.00     0.00 14426.16 14426.22
 scf_env_do_scf_inner_loop          217  4.0     0.02     1.06 14426.16 14426.22
 run_smeagol_emtrans                218  6.0 13846.32 14049.29 14402.30 14413.68
 qs_scf_new_mos_kp                  217  5.0     0.00     0.01 14335.97 14347.29
 -------------------------------------------------------------------------------

 The number of warnings for this run is : 0
 
 -------------------------------------------------------------------------------
  **** **** ******  **  PROGRAM ENDED AT                 2023-03-16 10:18:29.881
 ***** ** ***  *** **   PROGRAM RAN ON                     cn1000.scarf.rl.ac.uk
 **    ****   ******    PROGRAM RAN BY                                 scarf1157
 ***** **    ** ** **   PROGRAM PROCESS ID                                 11329
  **** **  *******  **  PROGRAM STOPPED IN /work4/scd/scarf1157/work/testing/cp2
                                           k-smeagol/bdt/cp2k/hollow-site/transp
                                           ort-cp2k/5-4/geometry-ordered/3x3-4/s
                                           z/bulk_layers-4/transmission/exp/dzvp
                                           /sergey/kpoints_bulk-2-2-100_em-2-2-1
                                           _hlb-t-auto_iv
