 DBCSR| CPU Multiplication driver                                           XSMM
 DBCSR| Multrec recursion limit                                              512
 DBCSR| Multiplication stack size                                           1000
 DBCSR| Maximum elements for images                                    UNLIMITED
 DBCSR| Multiplicative factor virtual images                                   1
 DBCSR| Use multiplication densification                                       T
 DBCSR| Multiplication size stacks                                             3
 DBCSR| Use memory pool for CPU allocation                                     F
 DBCSR| Number of 3D layers                                               SINGLE
 DBCSR| Use MPI memory allocation                                              F
 DBCSR| Use RMA algorithm                                                      F
 DBCSR| Use Communication thread                                               T
 DBCSR| Communication thread load                                             87
 DBCSR| MPI: My node id                                                        0
 DBCSR| MPI: Number of nodes                                                 240
 DBCSR| OMP: Current number of threads                                         1
 DBCSR| OMP: Max number of threads                                             1
 DBCSR| Split modifier for TAS multiplication algorithm                  1.0E+00


  **** **** ******  **  PROGRAM STARTED AT               2023-03-15 20:35:52.221
 ***** ** ***  *** **   PROGRAM STARTED ON                 cn1000.scarf.rl.ac.uk
 **    ****   ******    PROGRAM STARTED BY                             scarf1157
 ***** **    ** ** **   PROGRAM PROCESS ID                                 62455
  **** **  *******  **  PROGRAM STARTED IN /work4/scd/scarf1157/work/testing/cp2
                                           k-smeagol/bdt/cp2k/hollow-site/transp
                                           ort-cp2k/5-4/geometry-ordered/3x3-4/s
                                           z/bulk_layers-4/transmission/exp/dzvp
                                           /sergey/kpoints_bulk-2-2-100_em-2-2-1
                                           _hlb-t-auto_iv

 CP2K| version string:                 CP2K version 2022.1 (Development Version)
 CP2K| source code revision number:                                  git:e136ce5
 CP2K| cp2kflags: omp fftw3 libxc parallel mpi3 scalapack xsmm spglib           
 CP2K| is freely available from                            https://www.cp2k.org/
 CP2K| Program compiled at                          Thu  9 Mar 17:17:16 GMT 2023
 CP2K| Program compiled on                                 cn1108.scarf.rl.ac.uk
 CP2K| Program compiled for                                                local
 CP2K| Data directory path    /home/vol07/scarf1157/code/smeagol/cp2k-smeagol/sc
 CP2K| Input file name                                                V_-5.0.inp

 GLOBAL| Force Environment number                                              1
 GLOBAL| Basis set file name                                        BASIS_MOLOPT
 GLOBAL| Potential file name                                      GTH_POTENTIALS
 GLOBAL| MM Potential file name                                     MM_POTENTIAL
 GLOBAL| Coordinate file name                                             em.xyz
 GLOBAL| Method name                                                        CP2K
 GLOBAL| Project name                                                     V--5.0
 GLOBAL| Run type                                                         ENERGY
 GLOBAL| FFT library                                                       FFTW3
 GLOBAL| Diagonalization library                                       ScaLAPACK
 GLOBAL| Orthonormality check for eigenvectors                          DISABLED
 GLOBAL| Matrix multiplication library                                 ScaLAPACK
 GLOBAL| All-to-all communication in single precision                          F
 GLOBAL| FFTs using library dependent lengths                                  T
 GLOBAL| Grid backend                                                       AUTO
 GLOBAL| Global print level                                               MEDIUM
 GLOBAL| MPI I/O enabled                                                       T
 GLOBAL| Total number of message passing processes                           240
 GLOBAL| Number of threads for this process                                    1
 GLOBAL| This output is from process                                           0
 GLOBAL| Stack size for threads created by OpenMP (OMP_STACKSIZE)        default
 GLOBAL| CPU model name                         AMD EPYC 7502P 32-Core Processor
 GLOBAL| CPUID                                                              1002

 MEMORY| system memory details [Kb]
 MEMORY|                        rank 0           min           max       average
 MEMORY| MemTotal            263897776     263896980     263897776     263897081
 MEMORY| MemFree             116635272     116635204     208399236     170445679
 MEMORY| Buffers                  2476          2476          2568          2544
 MEMORY| Cached              127721988      44818992     127721988      77713003
 MEMORY| Slab                  1747656        982628       1747656       1309058
 MEMORY| SReclaimable          1207392        531108       1207392        789278
 MEMORY| MemLikelyFree       245567128     245567060     253751900     248950504


 *** Fundamental physical constants (SI units) ***

 *** Literature: B. J. Mohr and B. N. Taylor,
 ***             CODATA recommended values of the fundamental physical
 ***             constants: 2006, Web Version 5.1
 ***             http://physics.nist.gov/constants

 Speed of light in vacuum [m/s]                             2.99792458000000E+08
 Magnetic constant or permeability of vacuum [N/A**2]       1.25663706143592E-06
 Electric constant or permittivity of vacuum [F/m]          8.85418781762039E-12
 Planck constant (h) [J*s]                                  6.62606896000000E-34
 Planck constant (h-bar) [J*s]                              1.05457162825177E-34
 Elementary charge [C]                                      1.60217648700000E-19
 Electron mass [kg]                                         9.10938215000000E-31
 Electron g factor [ ]                                     -2.00231930436220E+00
 Proton mass [kg]                                           1.67262163700000E-27
 Fine-structure constant                                    7.29735253760000E-03
 Rydberg constant [1/m]                                     1.09737315685270E+07
 Avogadro constant [1/mol]                                  6.02214179000000E+23
 Boltzmann constant [J/K]                                   1.38065040000000E-23
 Atomic mass unit [kg]                                      1.66053878200000E-27
 Bohr radius [m]                                            5.29177208590000E-11

 *** Conversion factors ***

 [u] -> [a.u.]                                              1.82288848426455E+03
 [Angstrom] -> [Bohr] = [a.u.]                              1.88972613288564E+00
 [a.u.] = [Bohr] -> [Angstrom]                              5.29177208590000E-01
 [a.u.] -> [s]                                              2.41888432650478E-17
 [a.u.] -> [fs]                                             2.41888432650478E-02
 [a.u.] -> [J]                                              4.35974393937059E-18
 [a.u.] -> [N]                                              8.23872205491840E-08
 [a.u.] -> [K]                                              3.15774647902944E+05
 [a.u.] -> [kJ/mol]                                         2.62549961709828E+03
 [a.u.] -> [kcal/mol]                                       6.27509468713739E+02
 [a.u.] -> [Pa]                                             2.94210107994716E+13
 [a.u.] -> [bar]                                            2.94210107994716E+08
 [a.u.] -> [atm]                                            2.90362800883016E+08
 [a.u.] -> [eV]                                             2.72113838565563E+01
 [a.u.] -> [Hz]                                             6.57968392072181E+15
 [a.u.] -> [1/cm] (wave numbers)                            2.19474631370540E+05
 [a.u./Bohr**2] -> [1/cm]                                   5.14048714338585E+03
 

 CELL_TOP| Volume [angstrom^3]:                                      2357.480286
 CELL_TOP| Vector a [angstrom     8.336     0.000     0.000   |a| =     8.336000
 CELL_TOP| Vector b [angstrom     0.000     8.336     0.000   |b| =     8.336000
 CELL_TOP| Vector c [angstrom     0.000     0.000    33.926   |c| =    33.926000
 CELL_TOP| Angle (b,c), alpha [degree]:                                90.000000
 CELL_TOP| Angle (a,c), beta  [degree]:                                90.000000
 CELL_TOP| Angle (a,b), gamma [degree]:                                90.000000
 CELL_TOP| Numerically orthorhombic:                                         YES
 CELL_TOP| Periodicity                                                       XYZ

 GENERATE|  Preliminary Number of Bonds generated:                             0
 GENERATE|  Achieved consistency in connectivity generation.

 CELL| Volume [angstrom^3]:                                          2357.480286
 CELL| Vector a [angstrom]:       8.336     0.000     0.000   |a| =     8.336000
 CELL| Vector b [angstrom]:       0.000     8.336     0.000   |b| =     8.336000
 CELL| Vector c [angstrom]:       0.000     0.000    33.926   |c| =    33.926000
 CELL| Angle (b,c), alpha [degree]:                                    90.000000
 CELL| Angle (a,c), beta  [degree]:                                    90.000000
 CELL| Angle (a,b), gamma [degree]:                                    90.000000
 CELL| Numerically orthorhombic:                                             YES
 CELL| Periodicity                                                           XYZ

 CELL_REF| Volume [angstrom^3]:                                      2357.480286
 CELL_REF| Vector a [angstrom     8.336     0.000     0.000   |a| =     8.336000
 CELL_REF| Vector b [angstrom     0.000     8.336     0.000   |b| =     8.336000
 CELL_REF| Vector c [angstrom     0.000     0.000    33.926   |c| =    33.926000
 CELL_REF| Angle (b,c), alpha [degree]:                                90.000000
 CELL_REF| Angle (a,c), beta  [degree]:                                90.000000
 CELL_REF| Angle (a,b), gamma [degree]:                                90.000000
 CELL_REF| Numerically orthorhombic:                                         YES
 CELL_REF| Periodicity                                                       XYZ

 *******************************************************************************
                                    Kpoints
 *******************************************************************************
 BRILLOUIN| K-point scheme                                        Monkhorst-Pack
 BRILLOUIN| K-Point grid                                             2    2    1
 BRILLOUIN| Accuracy in Symmetry determination                      0.100000E-07
 BRILLOUIN| K-Point point group symmetrization                               OFF
 BRILLOUIN| Wavefunction type                                            COMPLEX
 BRILLOUIN| Use full k-point grid     
 BRILLOUIN| List of Kpoints [2 Pi/Bohr]                                        4
 BRILLOUIN| Number           Weight            X              Y              Z
 BRILLOUIN|     1           0.25000       -0.25000       -0.25000        0.00000
 BRILLOUIN|     2           0.25000       -0.25000        0.25000        0.00000
 BRILLOUIN|     3           0.25000        0.25000       -0.25000        0.00000
 BRILLOUIN|     4           0.25000        0.25000        0.25000        0.00000
 *******************************************************************************

 *******************************************************************************
 *******************************************************************************
 **                                                                           **
 **     #####                         ##              ##                      **
 **    ##   ##            ##          ##              ##                      **
 **   ##     ##                       ##            ######                    **
 **   ##     ##  ##   ##  ##   #####  ##  ##   ####   ##    #####    #####    **
 **   ##     ##  ##   ##  ##  ##      ## ##   ##      ##   ##   ##  ##   ##   **
 **   ##  ## ##  ##   ##  ##  ##      ####     ###    ##   ######   ######    **
 **    ##  ###   ##   ##  ##  ##      ## ##      ##   ##   ##       ##        **
 **     #######   #####   ##   #####  ##  ##  ####    ##    #####   ##        **
 **           ##                                                    ##        **
 **                                                                           **
 **                                                ... make the atoms dance   **
 **                                                                           **
 **            Copyright (C) by CP2K developers group (2000-2022)             **
 **                      J. Chem. Phys. 152, 194103 (2020)                    **
 **                                                                           **
 *******************************************************************************

 DFT| Spin restricted Kohn-Sham (RKS) calculation                            RKS
 DFT| Multiplicity                                                             1
 DFT| Number of spin states                                                    1
 DFT| Charge                                                                   0
 DFT| Self-interaction correction (SIC)                                       NO
 DFT| Cutoffs: density                                              1.000000E-10
 DFT|          gradient                                             1.000000E-10
 DFT|          tau                                                  1.000000E-10
 DFT|          cutoff_smoothing_range                               0.000000E+00
 DFT| XC density smoothing                                                  NONE
 DFT| XC derivatives                                                          PW

 FUNCTIONAL| PADE:
 FUNCTIONAL| S. Goedecker, M. Teter and J. Hutter, Phys. Rev. B 54, 1703 (1996) 


 QS| Method:                                                                 GPW
 QS| Density plane wave grid type                        NON-SPHERICAL FULLSPACE
 QS| Number of grid levels:                                                    4
 QS| Density cutoff [a.u.]:                                                200.0
 QS| Multi grid cutoff [a.u.]: 1) grid level                               200.0
 QS|                           2) grid level                                66.7
 QS|                           3) grid level                                22.2
 QS|                           4) grid level                                 7.4
 QS| Grid level progression factor:                                          3.0
 QS| Relative density cutoff [a.u.]:                                        20.0
 QS| Interaction thresholds: eps_pgf_orb:                                1.0E-05
 QS|                         eps_filter_matrix:                          0.0E+00
 QS|                         eps_core_charge:                            1.0E-12
 QS|                         eps_rho_gspace:                             1.0E-10
 QS|                         eps_rho_rspace:                             1.0E-10
 QS|                         eps_gvg_rspace:                             1.0E-05
 QS|                         eps_ppl:                                    1.0E-02
 QS|                         eps_ppnl:                                   1.0E-07


 ATOMIC KIND INFORMATION

  1. Atomic kind: Au                                    Number of atoms:     104

     Orbital Basis Set                                         SZV-MOLOPT-SR-GTH

       Number of orbital shell sets:                                           1
       Number of orbital shells:                                               3
       Number of primitive Cartesian functions:                                5
       Number of Cartesian basis functions:                                   10
       Number of spherical basis functions:                                    9
       Norm type:                                                              2

       Normalised Cartesian orbitals:

                        Set   Shell   Orbital            Exponent    Coefficient

                          1       1    2s                2.950008       0.074626
                                                         1.563057      -0.007898
                                                         0.666664      -0.297688
                                                         0.251083       0.136809
                                                         0.081714       0.088198

                          1       2    3px               2.950008       0.148824
                                                         1.563057       0.025430
                                                         0.666664      -0.123003
                                                         0.251083       0.033648
                                                         0.081714       0.059008
                          1       2    3py               2.950008       0.148824
                                                         1.563057       0.025430
                                                         0.666664      -0.123003
                                                         0.251083       0.033648
                                                         0.081714       0.059008
                          1       2    3pz               2.950008       0.148824
                                                         1.563057       0.025430
                                                         0.666664      -0.123003
                                                         0.251083       0.033648
                                                         0.081714       0.059008

                          1       3    4dx2              2.950008      -0.139595
                                                         1.563057       1.319655
                                                         0.666664       0.377081
                                                         0.251083       0.046872
                                                         0.081714       0.001393
                          1       3    4dxy              2.950008      -0.241786
                                                         1.563057       2.285709
                                                         0.666664       0.653124
                                                         0.251083       0.081185
                                                         0.081714       0.002412
                          1       3    4dxz              2.950008      -0.241786
                                                         1.563057       2.285709
                                                         0.666664       0.653124
                                                         0.251083       0.081185
                                                         0.081714       0.002412
                          1       3    4dy2              2.950008      -0.139595
                                                         1.563057       1.319655
                                                         0.666664       0.377081
                                                         0.251083       0.046872
                                                         0.081714       0.001393
                          1       3    4dyz              2.950008      -0.241786
                                                         1.563057       2.285709
                                                         0.666664       0.653124
                                                         0.251083       0.081185
                                                         0.081714       0.002412
                          1       3    4dz2              2.950008      -0.139595
                                                         1.563057       1.319655
                                                         0.666664       0.377081
                                                         0.251083       0.046872
                                                         0.081714       0.001393

       Atomic covalent radius [Angstrom]:                                  1.340

       Atomic van der Waals radius [Angstrom]:                             1.660

     GTH Potential information for                                  GTH-PADE-q11

       Description:                       Goedecker-Teter-Hutter pseudopotential
                                           Goedecker et al., PRB 54, 1703 (1996)
                                          Hartwigsen et al., PRB 58, 3641 (1998)
                                                      Krack, TCA 114, 145 (2005)

       Gaussian exponent of the core charge distribution:               1.436369
       Electronic configuration (s p d ...):                           1   0  10

       Parameters of the local part of the GTH pseudopotential:

                          rloc        C1          C2          C3          C4
                        0.590000   11.604428

       Parameters of the non-local part of the GTH pseudopotential:

                   l      r(l)      h(i,j,l)

                   0    0.521180    2.538614   -1.046137
                                   -1.046137    2.701113
                   1    0.630613    0.394853   -0.869592
                                   -0.869592    2.057831
                   2    0.440706   -4.719070    0.727771
                                    0.727771   -1.650429

  2. Atomic kind: S                                     Number of atoms:       2

     Orbital Basis Set                                        DZVP-MOLOPT-SR-GTH

       Number of orbital shell sets:                                           1
       Number of orbital shells:                                               5
       Number of primitive Cartesian functions:                                4
       Number of Cartesian basis functions:                                   14
       Number of spherical basis functions:                                   13
       Norm type:                                                              2

       Normalised Cartesian orbitals:

                        Set   Shell   Orbital            Exponent    Coefficient

                          1       1    2s                2.215855       0.308496
                                                         1.131471       0.138505
                                                         0.410168      -0.373736
                                                         0.140587      -0.040370

                          1       2    3s                2.215855      -0.329528
                                                         1.131471      -0.517509
                                                         0.410168       0.787368
                                                         0.140587      -0.322786

                          1       3    3px               2.215855       0.420434
                                                         1.131471      -0.319283
                                                         0.410168      -0.335323
                                                         0.140587      -0.030976
                          1       3    3py               2.215855       0.420434
                                                         1.131471      -0.319283
                                                         0.410168      -0.335323
                                                         0.140587      -0.030976
                          1       3    3pz               2.215855       0.420434
                                                         1.131471      -0.319283
                                                         0.410168      -0.335323
                                                         0.140587      -0.030976

                          1       4    4px               2.215855       0.241296
                                                         1.131471      -0.170582
                                                         0.410168      -0.186977
                                                         0.140587       0.153509
                          1       4    4py               2.215855       0.241296
                                                         1.131471      -0.170582
                                                         0.410168      -0.186977
                                                         0.140587       0.153509
                          1       4    4pz               2.215855       0.241296
                                                         1.131471      -0.170582
                                                         0.410168      -0.186977
                                                         0.140587       0.153509

                          1       5    4dx2              2.215855       0.573559
                                                         1.131471       0.544926
                                                         0.410168       0.228284
                                                         0.140587       0.008811
                          1       5    4dxy              2.215855       0.993434
                                                         1.131471       0.943840
                                                         0.410168       0.395400
                                                         0.140587       0.015260
                          1       5    4dxz              2.215855       0.993434
                                                         1.131471       0.943840
                                                         0.410168       0.395400
                                                         0.140587       0.015260
                          1       5    4dy2              2.215855       0.573559
                                                         1.131471       0.544926
                                                         0.410168       0.228284
                                                         0.140587       0.008811
                          1       5    4dyz              2.215855       0.993434
                                                         1.131471       0.943840
                                                         0.410168       0.395400
                                                         0.140587       0.015260
                          1       5    4dz2              2.215855       0.573559
                                                         1.131471       0.544926
                                                         0.410168       0.228284
                                                         0.140587       0.008811

       Atomic covalent radius [Angstrom]:                                  1.020

       Atomic van der Waals radius [Angstrom]:                             1.800

     GTH Potential information for                                   GTH-PADE-q6

       Description:                       Goedecker-Teter-Hutter pseudopotential
                                           Goedecker et al., PRB 54, 1703 (1996)
                                          Hartwigsen et al., PRB 58, 3641 (1998)
                                                      Krack, TCA 114, 145 (2005)

       Gaussian exponent of the core charge distribution:               2.834467
       Electronic configuration (s p d ...):                               2   4

       Parameters of the local part of the GTH pseudopotential:

                          rloc        C1          C2          C3          C4
                        0.420000   -6.554492

       Parameters of the non-local part of the GTH pseudopotential:

                   l      r(l)      h(i,j,l)

                   0    0.361757    7.905303   -1.731881
                                   -1.731881    4.471698
                   1    0.405285    3.866579

  3. Atomic kind: C                                     Number of atoms:       6

     Orbital Basis Set                                        DZVP-MOLOPT-SR-GTH

       Number of orbital shell sets:                                           1
       Number of orbital shells:                                               5
       Number of primitive Cartesian functions:                                5
       Number of Cartesian basis functions:                                   14
       Number of spherical basis functions:                                   13
       Norm type:                                                              2

       Normalised Cartesian orbitals:

                        Set   Shell   Orbital            Exponent    Coefficient

                          1       1    2s                5.605331       0.322515
                                                         2.113016       0.213043
                                                         0.769911      -0.209686
                                                         0.348157      -0.219794
                                                         0.128212      -0.022789

                          1       2    3s                5.605331       0.552234
                                                         2.113016       0.082072
                                                         0.769911       0.007843
                                                         0.348157       0.136893
                                                         0.128212       0.074283

                          1       3    3px               5.605331      -0.703879
                                                         2.113016      -0.642521
                                                         0.769911      -0.374851
                                                         0.348157      -0.139743
                                                         0.128212      -0.027849
                          1       3    3py               5.605331      -0.703879
                                                         2.113016      -0.642521
                                                         0.769911      -0.374851
                                                         0.348157      -0.139743
                                                         0.128212      -0.027849
                          1       3    3pz               5.605331      -0.703879
                                                         2.113016      -0.642521
                                                         0.769911      -0.374851
                                                         0.348157      -0.139743
                                                         0.128212      -0.027849

                          1       4    4px               5.605331      -0.480376
                                                         2.113016      -0.552894
                                                         0.769911      -0.316145
                                                         0.348157       0.210505
                                                         0.128212       0.076095
                          1       4    4py               5.605331      -0.480376
                                                         2.113016      -0.552894
                                                         0.769911      -0.316145
                                                         0.348157       0.210505
                                                         0.128212       0.076095
                          1       4    4pz               5.605331      -0.480376
                                                         2.113016      -0.552894
                                                         0.769911      -0.316145
                                                         0.348157       0.210505
                                                         0.128212       0.076095

                          1       5    4dx2              5.605331       0.640026
                                                         2.113016       0.274300
                                                         0.769911       0.446711
                                                         0.348157       0.028674
                                                         0.128212       0.029790
                          1       5    4dxy              5.605331       1.108557
                                                         2.113016       0.475102
                                                         0.769911       0.773726
                                                         0.348157       0.049666
                                                         0.128212       0.051599
                          1       5    4dxz              5.605331       1.108557
                                                         2.113016       0.475102
                                                         0.769911       0.773726
                                                         0.348157       0.049666
                                                         0.128212       0.051599
                          1       5    4dy2              5.605331       0.640026
                                                         2.113016       0.274300
                                                         0.769911       0.446711
                                                         0.348157       0.028674
                                                         0.128212       0.029790
                          1       5    4dyz              5.605331       1.108557
                                                         2.113016       0.475102
                                                         0.769911       0.773726
                                                         0.348157       0.049666
                                                         0.128212       0.051599
                          1       5    4dz2              5.605331       0.640026
                                                         2.113016       0.274300
                                                         0.769911       0.446711
                                                         0.348157       0.028674
                                                         0.128212       0.029790

       Atomic covalent radius [Angstrom]:                                  0.770

       Atomic van der Waals radius [Angstrom]:                             1.700

     GTH Potential information for                                   GTH-PADE-q4

       Description:                       Goedecker-Teter-Hutter pseudopotential
                                           Goedecker et al., PRB 54, 1703 (1996)
                                          Hartwigsen et al., PRB 58, 3641 (1998)
                                                      Krack, TCA 114, 145 (2005)

       Gaussian exponent of the core charge distribution:               4.109048
       Electronic configuration (s p d ...):                               2   2

       Parameters of the local part of the GTH pseudopotential:

                          rloc        C1          C2          C3          C4
                        0.348830   -8.513771    1.228432

       Parameters of the non-local part of the GTH pseudopotential:

                   l      r(l)      h(i,j,l)

                   0    0.304553    9.522842
                   1    0.232677

  4. Atomic kind: H                                     Number of atoms:       4

     Orbital Basis Set                                        DZVP-MOLOPT-SR-GTH

       Number of orbital shell sets:                                           1
       Number of orbital shells:                                               3
       Number of primitive Cartesian functions:                                5
       Number of Cartesian basis functions:                                    5
       Number of spherical basis functions:                                    5
       Norm type:                                                              2

       Normalised Cartesian orbitals:

                        Set   Shell   Orbital            Exponent    Coefficient

                          1       1    2s               10.068468      -0.133023
                                                         2.680223      -0.177618
                                                         0.791502      -0.258419
                                                         0.239116      -0.107525
                                                         0.082193      -0.014019

                          1       2    3s               10.068468       0.344673
                                                         2.680223       1.819821
                                                         0.791502      -0.999069
                                                         0.239116       0.017430
                                                         0.082193       0.082660

                          1       3    3px              10.068468       0.155326
                                                         2.680223       0.367157
                                                         0.791502       0.311480
                                                         0.239116       0.080105
                                                         0.082193       0.033440
                          1       3    3py              10.068468       0.155326
                                                         2.680223       0.367157
                                                         0.791502       0.311480
                                                         0.239116       0.080105
                                                         0.082193       0.033440
                          1       3    3pz              10.068468       0.155326
                                                         2.680223       0.367157
                                                         0.791502       0.311480
                                                         0.239116       0.080105
                                                         0.082193       0.033440

       Atomic covalent radius [Angstrom]:                                  0.320

       Atomic van der Waals radius [Angstrom]:                             1.090

     GTH Potential information for                                   GTH-PADE-q1

       Description:                       Goedecker-Teter-Hutter pseudopotential
                                           Goedecker et al., PRB 54, 1703 (1996)
                                          Hartwigsen et al., PRB 58, 3641 (1998)
                                                      Krack, TCA 114, 145 (2005)

       Gaussian exponent of the core charge distribution:              12.500000
       Electronic configuration (s p d ...):                                   1

       Parameters of the local part of the GTH pseudopotential:

                          rloc        C1          C2          C3          C4
                        0.200000   -4.180237    0.725075


 MOLECULE KIND INFORMATION


 All atoms are their own molecule, skipping detailed information


 TOTAL NUMBERS AND MAXIMUM NUMBERS

  Total number of            - Atomic kinds:                                   4
                             - Atoms:                                        116
                             - Shell sets:                                   116
                             - Shells:                                       364
                             - Primitive Cartesian functions:                578
                             - Cartesian basis functions:                   1172
                             - Spherical basis functions:                   1060

  Maximum angular momentum of- Orbital basis functions:                        2
                             - Local part of the GTH pseudopotential:          2
                             - Non-local part of the GTH pseudopotential:      4


 MODULE QUICKSTEP: ATOMIC COORDINATES IN ANGSTROM

   Atom Kind Element         X             Y             Z       Z(eff)     Mass
      1    1 Au   79      0.000000      0.000000      0.000000  11.0000 196.9666
      2    1 Au   79      0.000000      4.168000      0.000000  11.0000 196.9666
      3    1 Au   79      2.084000      2.084000      0.000000  11.0000 196.9666
      4    1 Au   79      2.084000      6.252000      0.000000  11.0000 196.9666
      5    1 Au   79      4.168000      0.000000      0.000000  11.0000 196.9666
      6    1 Au   79      4.168000      4.168000      0.000000  11.0000 196.9666
      7    1 Au   79      6.252000      2.084000      0.000000  11.0000 196.9666
      8    1 Au   79      6.252000      6.252000      0.000000  11.0000 196.9666
      9    1 Au   79      0.000000      2.084000      2.084000  11.0000 196.9666
     10    1 Au   79      0.000000      6.252000      2.084000  11.0000 196.9666
     11    1 Au   79      2.084000      0.000000      2.084000  11.0000 196.9666
     12    1 Au   79      2.084000      4.168000      2.084000  11.0000 196.9666
     13    1 Au   79      4.168000      2.084000      2.084000  11.0000 196.9666
     14    1 Au   79      4.168000      6.252000      2.084000  11.0000 196.9666
     15    1 Au   79      6.252000      0.000000      2.084000  11.0000 196.9666
     16    1 Au   79      6.252000      4.168000      2.084000  11.0000 196.9666
     17    1 Au   79      0.000000      0.000000      4.168000  11.0000 196.9666
     18    1 Au   79      0.000000      4.168000      4.168000  11.0000 196.9666
     19    1 Au   79      2.084000      2.084000      4.168000  11.0000 196.9666
     20    1 Au   79      2.084000      6.252000      4.168000  11.0000 196.9666
     21    1 Au   79      4.168000      0.000000      4.168000  11.0000 196.9666
     22    1 Au   79      4.168000      4.168000      4.168000  11.0000 196.9666
     23    1 Au   79      6.252000      2.084000      4.168000  11.0000 196.9666
     24    1 Au   79      6.252000      6.252000      4.168000  11.0000 196.9666
     25    1 Au   79      0.000000      2.084000      6.252000  11.0000 196.9666
     26    1 Au   79      0.000000      6.252000      6.252000  11.0000 196.9666
     27    1 Au   79      2.084000      0.000000      6.252000  11.0000 196.9666
     28    1 Au   79      2.084000      4.168000      6.252000  11.0000 196.9666
     29    1 Au   79      4.168000      2.084000      6.252000  11.0000 196.9666
     30    1 Au   79      4.168000      6.252000      6.252000  11.0000 196.9666
     31    1 Au   79      6.252000      0.000000      6.252000  11.0000 196.9666
     32    1 Au   79      6.252000      4.168000      6.252000  11.0000 196.9666
     33    1 Au   79      0.000000      0.000000      8.336000  11.0000 196.9666
     34    1 Au   79      0.000000      4.168000      8.336000  11.0000 196.9666
     35    1 Au   79      2.084000      2.084000      8.336000  11.0000 196.9666
     36    1 Au   79      2.084000      6.252000      8.336000  11.0000 196.9666
     37    1 Au   79      4.168000      0.000000      8.336000  11.0000 196.9666
     38    1 Au   79      4.168000      4.168000      8.336000  11.0000 196.9666
     39    1 Au   79      6.252000      2.084000      8.336000  11.0000 196.9666
     40    1 Au   79      6.252000      6.252000      8.336000  11.0000 196.9666
     41    1 Au   79      0.000000      2.084000     10.420000  11.0000 196.9666
     42    1 Au   79      0.000000      6.252000     10.420000  11.0000 196.9666
     43    1 Au   79      2.084000      0.000000     10.420000  11.0000 196.9666
     44    1 Au   79      2.084000      4.168000     10.420000  11.0000 196.9666
     45    1 Au   79      4.168000      2.084000     10.420000  11.0000 196.9666
     46    1 Au   79      4.168000      6.252000     10.420000  11.0000 196.9666
     47    1 Au   79      6.252000      0.000000     10.420000  11.0000 196.9666
     48    1 Au   79      6.252000      4.168000     10.420000  11.0000 196.9666
     49    1 Au   79      0.000000      0.000000     12.504000  11.0000 196.9666
     50    1 Au   79      0.000000      4.168000     12.504000  11.0000 196.9666
     51    1 Au   79      2.084000      2.084000     12.504000  11.0000 196.9666
     52    1 Au   79      2.084000      6.252000     12.504000  11.0000 196.9666
     53    1 Au   79      4.168000      0.000000     12.504000  11.0000 196.9666
     54    1 Au   79      4.168000      4.168000     12.504000  11.0000 196.9666
     55    1 Au   79      6.252000      2.084000     12.504000  11.0000 196.9666
     56    1 Au   79      6.252000      6.252000     12.504000  11.0000 196.9666
     57    2 S    16      4.171000      2.086000     13.790000   6.0000  32.0650
     58    3 C     6      4.175000      2.089000     15.551000   4.0000  12.0107
     59    4 H     1      2.073000      2.116000     15.734000   1.0000   1.0079
     60    4 H     1      6.269000      2.116000     15.740000   1.0000   1.0079
     61    3 C     6      2.965000      2.095000     16.251000   4.0000  12.0107
     62    3 C     6      5.373000      2.095000     16.251000   4.0000  12.0107
     63    3 C     6      2.959000      2.074000     17.674000   4.0000  12.0107
     64    3 C     6      5.367000      2.074000     17.674000   4.0000  12.0107
     65    4 H     1      2.063000      2.053000     18.186000   1.0000   1.0079
     66    4 H     1      6.259000      2.053000     18.192000   1.0000   1.0079
     67    3 C     6      4.157000      2.080000     18.375000   4.0000  12.0107
     68    2 S    16      4.171000      2.086000     20.136000   6.0000  32.0650
     69    1 Au   79      0.000000      0.000000     21.422000  11.0000 196.9666
     70    1 Au   79      0.000000      4.168000     21.422000  11.0000 196.9666
     71    1 Au   79      2.084000      2.084000     21.422000  11.0000 196.9666
     72    1 Au   79      2.084000      6.252000     21.422000  11.0000 196.9666
     73    1 Au   79      4.168000      0.000000     21.422000  11.0000 196.9666
     74    1 Au   79      4.168000      4.168000     21.422000  11.0000 196.9666
     75    1 Au   79      6.252000      2.084000     21.422000  11.0000 196.9666
     76    1 Au   79      6.252000      6.252000     21.422000  11.0000 196.9666
     77    1 Au   79      0.000000      2.084000     23.506000  11.0000 196.9666
     78    1 Au   79      0.000000      6.252000     23.506000  11.0000 196.9666
     79    1 Au   79      2.084000      0.000000     23.506000  11.0000 196.9666
     80    1 Au   79      2.084000      4.168000     23.506000  11.0000 196.9666
     81    1 Au   79      4.168000      2.084000     23.506000  11.0000 196.9666
     82    1 Au   79      4.168000      6.252000     23.506000  11.0000 196.9666
     83    1 Au   79      6.252000      0.000000     23.506000  11.0000 196.9666
     84    1 Au   79      6.252000      4.168000     23.506000  11.0000 196.9666
     85    1 Au   79      0.000000      0.000000     25.590000  11.0000 196.9666
     86    1 Au   79      0.000000      4.168000     25.590000  11.0000 196.9666
     87    1 Au   79      2.084000      2.084000     25.590000  11.0000 196.9666
     88    1 Au   79      2.084000      6.252000     25.590000  11.0000 196.9666
     89    1 Au   79      4.168000      0.000000     25.590000  11.0000 196.9666
     90    1 Au   79      4.168000      4.168000     25.590000  11.0000 196.9666
     91    1 Au   79      6.252000      2.084000     25.590000  11.0000 196.9666
     92    1 Au   79      6.252000      6.252000     25.590000  11.0000 196.9666
     93    1 Au   79      0.000000      2.084000     27.674000  11.0000 196.9666
     94    1 Au   79      0.000000      6.252000     27.674000  11.0000 196.9666
     95    1 Au   79      2.084000      0.000000     27.674000  11.0000 196.9666
     96    1 Au   79      2.084000      4.168000     27.674000  11.0000 196.9666
     97    1 Au   79      4.168000      2.084000     27.674000  11.0000 196.9666
     98    1 Au   79      4.168000      6.252000     27.674000  11.0000 196.9666
     99    1 Au   79      6.252000      0.000000     27.674000  11.0000 196.9666
    100    1 Au   79      6.252000      4.168000     27.674000  11.0000 196.9666
    101    1 Au   79      0.000000      0.000000     29.758000  11.0000 196.9666
    102    1 Au   79      0.000000      4.168000     29.758000  11.0000 196.9666
    103    1 Au   79      2.084000      2.084000     29.758000  11.0000 196.9666
    104    1 Au   79      2.084000      6.252000     29.758000  11.0000 196.9666
    105    1 Au   79      4.168000      0.000000     29.758000  11.0000 196.9666
    106    1 Au   79      4.168000      4.168000     29.758000  11.0000 196.9666
    107    1 Au   79      6.252000      2.084000     29.758000  11.0000 196.9666
    108    1 Au   79      6.252000      6.252000     29.758000  11.0000 196.9666
    109    1 Au   79      0.000000      2.084000     31.842000  11.0000 196.9666
    110    1 Au   79      0.000000      6.252000     31.842000  11.0000 196.9666
    111    1 Au   79      2.084000      0.000000     31.842000  11.0000 196.9666
    112    1 Au   79      2.084000      4.168000     31.842000  11.0000 196.9666
    113    1 Au   79      4.168000      2.084000     31.842000  11.0000 196.9666
    114    1 Au   79      4.168000      6.252000     31.842000  11.0000 196.9666
    115    1 Au   79      6.252000      0.000000     31.842000  11.0000 196.9666
    116    1 Au   79      6.252000      4.168000     31.842000  11.0000 196.9666



 SCF PARAMETERS         Density guess:                                   RESTART
                        --------------------------------------------------------
                        max_scf:                                             500
                        max_scf_history:                                       0
                        max_diis:                                              4
                        --------------------------------------------------------
                        eps_scf:                                        1.00E-07
                        eps_scf_history:                                0.00E+00
                        eps_diis:                                       1.00E-01
                        eps_eigval:                                     1.00E-05
                        --------------------------------------------------------
                        level_shift [a.u.]:                             0.000000
                        added MOs                                       100    0
                        --------------------------------------------------------
                        Mixing method:                            BROYDEN_MIXING
                                                charge density mixing in g-space
                        --------------------------------------------------------
                        Smear method:                                FERMI_DIRAC
                        Electronic temperature [K]:                        293.0
                        Electronic temperature [a.u.]:                  9.28E-04
                        Accuracy threshold:                             1.00E-10
                        --------------------------------------------------------
                        No outer SCF

 PW_GRID| Information for grid number                                          1
 PW_GRID| Grid distributed over                                   240 processors
 PW_GRID| Real space group dimensions                                    12   20
 PW_GRID| the grid is blocked:                                               YES
 PW_GRID| Cutoff [a.u.]                                                    200.0
 PW_GRID| spherical cutoff:                                                   NO
 PW_GRID|   Bounds   1            -52      52                Points:         105
 PW_GRID|   Bounds   2            -52      52                Points:         105
 PW_GRID|   Bounds   3           -210     209                Points:         420
 PW_GRID| Volume element (a.u.^3)  0.3436E-02     Volume (a.u.^3)     15909.0657
 PW_GRID| Grid span                                                    FULLSPACE
 PW_GRID|   Distribution                         Average         Max         Min
 PW_GRID|   G-Vectors                            19293.8       19845       17640
 PW_GRID|   G-Rays                                 183.8         189         168
 PW_GRID|   Real Space Points                    19293.8       19845       17640

 PW_GRID| Information for grid number                                          2
 PW_GRID| Number of the reference grid                                         1
 PW_GRID| Grid distributed over                                   240 processors
 PW_GRID| Real space group dimensions                                    12   20
 PW_GRID| the grid is blocked:                                                NO
 PW_GRID| Cutoff [a.u.]                                                     66.7
 PW_GRID| spherical cutoff:                                                   NO
 PW_GRID|   Bounds   1            -30      29                Points:          60
 PW_GRID|   Bounds   2            -30      29                Points:          60
 PW_GRID|   Bounds   3           -120     119                Points:         240
 PW_GRID| Volume element (a.u.^3)  0.1841E-01     Volume (a.u.^3)     15909.0657
 PW_GRID| Grid span                                                    FULLSPACE
 PW_GRID|   Distribution                         Average         Max         Min
 PW_GRID|   G-Vectors                             3600.0       11340           0
 PW_GRID|   G-Rays                                  60.0         189           0
 PW_GRID|   Real Space Points                     3600.0        3600        3600

 PW_GRID| Information for grid number                                          3
 PW_GRID| Number of the reference grid                                         1
 PW_GRID| Grid distributed over                                   240 processors
 PW_GRID| Real space group dimensions                                    12   20
 PW_GRID| the grid is blocked:                                                NO
 PW_GRID| Cutoff [a.u.]                                                     22.2
 PW_GRID| spherical cutoff:                                                   NO
 PW_GRID|   Bounds   1            -16      16                Points:          33
 PW_GRID|   Bounds   2            -16      16                Points:          33
 PW_GRID|   Bounds   3            -70      69                Points:         140
 PW_GRID| Volume element (a.u.^3)  0.1043         Volume (a.u.^3)     15909.0657
 PW_GRID| Grid span                                                    FULLSPACE
 PW_GRID|   Distribution                         Average         Max         Min
 PW_GRID|   G-Vectors                              635.2        6237           0
 PW_GRID|   G-Rays                                  19.2         189           0
 PW_GRID|   Real Space Points                      635.2         840         280

 PW_GRID| Information for grid number                                          4
 PW_GRID| Number of the reference grid                                         1
 PW_GRID| Grid distributed over                                   240 processors
 PW_GRID| Real space group dimensions                                    12   20
 PW_GRID| the grid is blocked:                                                NO
 PW_GRID| Cutoff [a.u.]                                                      7.4
 PW_GRID| spherical cutoff:                                                   NO
 PW_GRID|   Bounds   1            -10       9                Points:          20
 PW_GRID|   Bounds   2            -10       9                Points:          20
 PW_GRID|   Bounds   3            -40      39                Points:          80
 PW_GRID| Volume element (a.u.^3)  0.4972         Volume (a.u.^3)     15909.0657
 PW_GRID| Grid span                                                    FULLSPACE
 PW_GRID|   Distribution                         Average         Max         Min
 PW_GRID|   G-Vectors                              133.3        3780           0
 PW_GRID|   G-Rays                                   6.7         189           0
 PW_GRID|   Real Space Points                      133.3         160          80

 POISSON| Solver                                                        PERIODIC
 POISSON| Periodicity                                                        XYZ

 RS_GRID| Information for grid number                                          1
 RS_GRID|   Bounds   1            -52      52                Points:         105
 RS_GRID|   Bounds   2            -52      52                Points:         105
 RS_GRID|   Bounds   3           -210     209                Points:         420
 RS_GRID| Real space distribution over                                  8 groups
 RS_GRID| Real space distribution along direction                              2
 RS_GRID| Border size                                                         30
 RS_GRID| Real space distribution over                                 30 groups
 RS_GRID| Real space distribution along direction                              3
 RS_GRID| Border size                                                         30
 RS_GRID|   Distribution                         Average         Max         Min
 RS_GRID|   Planes                                  73.1          74          73
 RS_GRID|   Distribution                         Average         Max         Min
 RS_GRID|   Planes                                  74.0          74          74

 RS_GRID| Information for grid number                                          2
 RS_GRID|   Bounds   1            -30      29                Points:          60
 RS_GRID|   Bounds   2            -30      29                Points:          60
 RS_GRID|   Bounds   3           -120     119                Points:         240
 RS_GRID| Real space distribution over                                  8 groups
 RS_GRID| Real space distribution along direction                              2
 RS_GRID| Border size                                                         22
 RS_GRID| Real space distribution over                                 30 groups
 RS_GRID| Real space distribution along direction                              3
 RS_GRID| Border size                                                         22
 RS_GRID|   Distribution                         Average         Max         Min
 RS_GRID|   Planes                                  51.5          52          51
 RS_GRID|   Distribution                         Average         Max         Min
 RS_GRID|   Planes                                  52.0          52          52

 RS_GRID| Information for grid number                                          3
 RS_GRID|   Bounds   1            -16      16                Points:          33
 RS_GRID|   Bounds   2            -16      16                Points:          33
 RS_GRID|   Bounds   3            -70      69                Points:         140
 RS_GRID| Real space fully replicated
 RS_GRID| Group size                                                           1

 RS_GRID| Information for grid number                                          4
 RS_GRID|   Bounds   1            -10       9                Points:          20
 RS_GRID|   Bounds   2            -10       9                Points:          20
 RS_GRID|   Bounds   3            -40      39                Points:          80
 RS_GRID| Real space fully replicated
 RS_GRID| Group size                                                           1

 KPOINTS| Number of kpoint groups                                              1
 KPOINTS| Size of each kpoint group                                          240
 KPOINTS| Number of kpoints per group                                          4

 Number of electrons:                                                       1184
 Number of occupied orbitals:                                                592
 Number of molecular orbitals:                                               692

 Number of orbital functions:                                               1060
 Number of independent orbital functions:                                   1060

 Extrapolation method: initial_guess


 SCF WAVEFUNCTION OPTIMIZATION

  Step     Update method      Time    Convergence         Total energy    Change
  ------------------------------------------------------------------------------
 SMEAGOL DEBUG| Number of electrons in the unit cell =      1183.9999999944
     1 NoMix/SMGL  0.30E+00  116.4    16.22038490     -3518.2829478965 -3.52E+03
 SMEAGOL DEBUG| Number of electrons in the unit cell =      1093.8826535331
     2 Broy./SMGL  0.30E+00   64.9    21.03353235     -3627.8474443845 -1.10E+02
 SMEAGOL DEBUG| Number of electrons in the unit cell =      1088.1614565624
     3 Broy./SMGL  0.30E+00   64.6    16.45255297     -3616.6031439796  1.12E+01
 SMEAGOL DEBUG| Number of electrons in the unit cell =      1124.2185672466
     4 Broy./SMGL  0.30E+00   64.9    21.46778370     -3300.4069814396  3.16E+02
 SMEAGOL DEBUG| Number of electrons in the unit cell =      1123.8952900337
     5 Broy./SMGL  0.30E+00   64.8    19.32776282     -3559.1081944309 -2.59E+02
 SMEAGOL DEBUG| Number of electrons in the unit cell =      1136.5368016818
     6 Broy./SMGL  0.30E+00   64.9     3.69912432     -3442.3448833220  1.17E+02
 SMEAGOL DEBUG| Number of electrons in the unit cell =      1159.1211034311
     7 Broy./SMGL  0.30E+00   64.6     7.04955865     -3419.5164785495  2.28E+01
 SMEAGOL DEBUG| Number of electrons in the unit cell =      1162.5917211326
     8 Broy./SMGL  0.30E+00   64.9     0.79117489     -3465.8383838091 -4.63E+01
 SMEAGOL DEBUG| Number of electrons in the unit cell =      1173.2956979364
     9 Broy./SMGL  0.30E+00   64.9     5.26999939     -3469.8819867236 -4.04E+00
 SMEAGOL DEBUG| Number of electrons in the unit cell =      1176.4988214729
    10 Broy./SMGL  0.30E+00   64.8     0.86260212     -3473.1437620708 -3.26E+00
 SMEAGOL DEBUG| Number of electrons in the unit cell =      1205.0707551980
    11 Broy./SMGL  0.30E+00   64.5     3.92159042     -3500.3671359060 -2.72E+01
 SMEAGOL DEBUG| Number of electrons in the unit cell =      1186.3067409267
    12 Broy./SMGL  0.30E+00   64.7     4.75444928     -3688.8705124284 -1.89E+02
 SMEAGOL DEBUG| Number of electrons in the unit cell =      1191.0721511309
    13 Broy./SMGL  0.30E+00   65.0     1.12543728     -3508.9704694978  1.80E+02
 SMEAGOL DEBUG| Number of electrons in the unit cell =      1186.8174769776
    14 Broy./SMGL  0.30E+00   64.7     0.29337284     -3516.1443535801 -7.17E+00
 SMEAGOL DEBUG| Number of electrons in the unit cell =      1187.2820161599
    15 Broy./SMGL  0.30E+00   65.1     0.27893834     -3507.7547320548  8.39E+00
 SMEAGOL DEBUG| Number of electrons in the unit cell =      1186.5183537854
    16 Broy./SMGL  0.30E+00   64.7     0.38083904     -3514.6431298104 -6.89E+00
 SMEAGOL DEBUG| Number of electrons in the unit cell =      1187.0853052907
    17 Broy./SMGL  0.30E+00   64.6     0.15057350     -3514.2613311643  3.82E-01
 SMEAGOL DEBUG| Number of electrons in the unit cell =      1184.9217125415
    18 Broy./SMGL  0.30E+00   64.4     0.19484960     -3515.7520135527 -1.49E+00
 SMEAGOL DEBUG| Number of electrons in the unit cell =      1184.9983003336
    19 Broy./SMGL  0.30E+00   65.4     0.36377625     -3513.4502967732  2.30E+00
 SMEAGOL DEBUG| Number of electrons in the unit cell =      1185.2179937354
    20 Broy./SMGL  0.30E+00   65.0     0.36481060     -3514.3138727139 -8.64E-01
 SMEAGOL DEBUG| Number of electrons in the unit cell =      1185.0922001569
    21 Broy./SMGL  0.30E+00   64.7     0.31840426     -3517.5899837764 -3.28E+00
 SMEAGOL DEBUG| Number of electrons in the unit cell =      1184.7824400871
    22 Broy./SMGL  0.30E+00   64.7     0.30736286     -3521.1300144386 -3.54E+00
 SMEAGOL DEBUG| Number of electrons in the unit cell =      1184.6635536094
    23 Broy./SMGL  0.30E+00   64.4     0.04215360     -3514.4409778238  6.69E+00
 SMEAGOL DEBUG| Number of electrons in the unit cell =      1184.3780966001
    24 Broy./SMGL  0.30E+00   65.4     0.11775952     -3515.5490657171 -1.11E+00
 SMEAGOL DEBUG| Number of electrons in the unit cell =      1184.3419298006
    25 Broy./SMGL  0.30E+00   64.5     0.06562168     -3517.3534921675 -1.80E+00
 SMEAGOL DEBUG| Number of electrons in the unit cell =      1184.3596734662
    26 Broy./SMGL  0.30E+00   65.6     0.03591958     -3517.0357515302  3.18E-01
 SMEAGOL DEBUG| Number of electrons in the unit cell =      1184.3441818769
    27 Broy./SMGL  0.30E+00   64.4     0.03318205     -3518.1852481922 -1.15E+00
 SMEAGOL DEBUG| Number of electrons in the unit cell =      1184.3348528664
    28 Broy./SMGL  0.30E+00   67.4     0.02895252     -3519.2881668380 -1.10E+00
 SMEAGOL DEBUG| Number of electrons in the unit cell =      1184.2389393224
    29 Broy./SMGL  0.30E+00   65.7     0.06091625     -3518.0413114601  1.25E+00
 SMEAGOL DEBUG| Number of electrons in the unit cell =      1184.1932212170
    30 Broy./SMGL  0.30E+00   64.4     0.03284660     -3517.9834409774  5.79E-02
 SMEAGOL DEBUG| Number of electrons in the unit cell =      1184.0980142945
    31 Broy./SMGL  0.30E+00   65.4     0.01907337     -3518.6213922847 -6.38E-01
 SMEAGOL DEBUG| Number of electrons in the unit cell =      1184.0679019112
    32 Broy./SMGL  0.30E+00   64.3     0.01168556     -3517.9373687835  6.84E-01
 SMEAGOL DEBUG| Number of electrons in the unit cell =      1184.0287377772
    33 Broy./SMGL  0.30E+00   64.4     0.01695025     -3517.9448131623 -7.44E-03
 SMEAGOL DEBUG| Number of electrons in the unit cell =      1183.9872177535
    34 Broy./SMGL  0.30E+00   64.2     0.01882267     -3518.1634032937 -2.19E-01
 SMEAGOL DEBUG| Number of electrons in the unit cell =      1183.9732933234
    35 Broy./SMGL  0.30E+00   64.8     0.01201954     -3517.3745757199  7.89E-01
 SMEAGOL DEBUG| Number of electrons in the unit cell =      1183.9746711433
    36 Broy./SMGL  0.30E+00   64.5     0.00605618     -3517.7200751350 -3.45E-01
 SMEAGOL DEBUG| Number of electrons in the unit cell =      1183.9740468707
    37 Broy./SMGL  0.30E+00   65.0     0.00735967     -3517.6294761354  9.06E-02
 SMEAGOL DEBUG| Number of electrons in the unit cell =      1183.9758787499
    38 Broy./SMGL  0.30E+00   64.9     0.00658578     -3517.8431119288 -2.14E-01
 SMEAGOL DEBUG| Number of electrons in the unit cell =      1183.9725633915
    39 Broy./SMGL  0.30E+00   65.3     0.00523520     -3517.7045399837  1.39E-01
 SMEAGOL DEBUG| Number of electrons in the unit cell =      1183.9810261935
    40 Broy./SMGL  0.30E+00   65.0     0.00729161     -3517.7702010893 -6.57E-02
 SMEAGOL DEBUG| Number of electrons in the unit cell =      1183.9798795661
    41 Broy./SMGL  0.30E+00   64.5     0.00824374     -3517.8432844378 -7.31E-02
 SMEAGOL DEBUG| Number of electrons in the unit cell =      1183.9769998524
    42 Broy./SMGL  0.30E+00   65.3     0.00595135     -3517.6948622785  1.48E-01
 SMEAGOL DEBUG| Number of electrons in the unit cell =      1183.9824532072
    43 Broy./SMGL  0.30E+00   64.6     0.00564285     -3517.6935894721  1.27E-03
 SMEAGOL DEBUG| Number of electrons in the unit cell =      1183.9846153555
    44 Broy./SMGL  0.30E+00   66.2     0.00349489     -3517.7264611621 -3.29E-02
 SMEAGOL DEBUG| Number of electrons in the unit cell =      1183.9862643138
    45 Broy./SMGL  0.30E+00   64.8     0.00359206     -3517.8349676753 -1.09E-01
 SMEAGOL DEBUG| Number of electrons in the unit cell =      1183.9890085998
    46 Broy./SMGL  0.30E+00   65.1     0.00337946     -3517.8190414857  1.59E-02
 SMEAGOL DEBUG| Number of electrons in the unit cell =      1183.9855169268
    47 Broy./SMGL  0.30E+00   64.5     0.00359128     -3517.7517292196  6.73E-02
 SMEAGOL DEBUG| Number of electrons in the unit cell =      1183.9880480320
    48 Broy./SMGL  0.30E+00   66.0     0.00350037     -3517.7720963827 -2.04E-02
 SMEAGOL DEBUG| Number of electrons in the unit cell =      1183.9929855589
    49 Broy./SMGL  0.30E+00   65.0     0.00402267     -3517.7371249706  3.50E-02
 SMEAGOL DEBUG| Number of electrons in the unit cell =      1183.9941918111
    50 Broy./SMGL  0.30E+00   65.2     0.00189727     -3517.8934736478 -1.56E-01
 SMEAGOL DEBUG| Number of electrons in the unit cell =      1183.9961006920
    51 Broy./SMGL  0.30E+00   64.9     0.00355278     -3517.9030616606 -9.59E-03
 SMEAGOL DEBUG| Number of electrons in the unit cell =      1183.9948340835
    52 Broy./SMGL  0.30E+00   64.5     0.00257520     -3517.8926938110  1.04E-02
 SMEAGOL DEBUG| Number of electrons in the unit cell =      1183.9938125960
    53 Broy./SMGL  0.30E+00   64.9     0.00355862     -3517.8604557067  3.22E-02
 SMEAGOL DEBUG| Number of electrons in the unit cell =      1183.9930820755
    54 Broy./SMGL  0.30E+00   64.7     0.00349735     -3517.7679951739  9.25E-02
 SMEAGOL DEBUG| Number of electrons in the unit cell =      1183.9929679050
    55 Broy./SMGL  0.30E+00   65.3     0.00349204     -3517.8414982034 -7.35E-02
 SMEAGOL DEBUG| Number of electrons in the unit cell =      1183.9924451884
    56 Broy./SMGL  0.30E+00   64.4     0.00355218     -3517.8571473545 -1.56E-02
 SMEAGOL DEBUG| Number of electrons in the unit cell =      1183.9913059733
    57 Broy./SMGL  0.30E+00   65.9     0.00639665     -3517.8258891639  3.13E-02
 SMEAGOL DEBUG| Number of electrons in the unit cell =      1183.9913212909
    58 Broy./SMGL  0.30E+00   66.8     0.00026122     -3517.8997164545 -7.38E-02
 SMEAGOL DEBUG| Number of electrons in the unit cell =      1183.9905166766
    59 Broy./SMGL  0.30E+00   65.3     0.00186940     -3517.8965593875  3.16E-03
 SMEAGOL DEBUG| Number of electrons in the unit cell =      1183.9894621652
    60 Broy./SMGL  0.30E+00   64.3     0.00183092     -3517.9035007400 -6.94E-03
 SMEAGOL DEBUG| Number of electrons in the unit cell =      1183.9867362383
    61 Broy./SMGL  0.30E+00   65.6     0.00338498     -3517.8860502812  1.75E-02
 SMEAGOL DEBUG| Number of electrons in the unit cell =      1183.9845279031
    62 Broy./SMGL  0.30E+00   65.7     0.00350555     -3517.8066801022  7.94E-02
 SMEAGOL DEBUG| Number of electrons in the unit cell =      1183.9830902826
    63 Broy./SMGL  0.30E+00   64.4     0.00349231     -3517.7564181438  5.03E-02
 SMEAGOL DEBUG| Number of electrons in the unit cell =      1183.9820759013
    64 Broy./SMGL  0.30E+00   65.2     0.00349480     -3517.7749517351 -1.85E-02
 SMEAGOL DEBUG| Number of electrons in the unit cell =      1183.9810435457
    65 Broy./SMGL  0.30E+00   64.4     0.00197240     -3517.7504119899  2.45E-02
 SMEAGOL DEBUG| Number of electrons in the unit cell =      1183.9832653618
    66 Broy./SMGL  0.30E+00   64.9     0.00196624     -3517.7332799802  1.71E-02
 SMEAGOL DEBUG| Number of electrons in the unit cell =      1183.9822075304
    67 Broy./SMGL  0.30E+00   64.8     0.00334911     -3517.7063757154  2.69E-02
 SMEAGOL DEBUG| Number of electrons in the unit cell =      1183.9816492355
    68 Broy./SMGL  0.30E+00   65.4     0.00335749     -3517.7333679693 -2.70E-02
 SMEAGOL DEBUG| Number of electrons in the unit cell =      1183.9813474619
    69 Broy./SMGL  0.30E+00   64.7     0.00348903     -3517.7795535556 -4.62E-02
 SMEAGOL DEBUG| Number of electrons in the unit cell =      1183.9826756276
    70 Broy./SMGL  0.30E+00   64.8     0.00348829     -3517.7397491745  3.98E-02
 SMEAGOL DEBUG| Number of electrons in the unit cell =      1183.9828435175
    71 Broy./SMGL  0.30E+00   65.9     0.00048456     -3517.7902771657 -5.05E-02
 SMEAGOL DEBUG| Number of electrons in the unit cell =      1183.9835127512
    72 Broy./SMGL  0.30E+00   64.1     0.00156589     -3517.7834867414  6.79E-03
 SMEAGOL DEBUG| Number of electrons in the unit cell =      1183.9833879287
    73 Broy./SMGL  0.30E+00   65.6     0.00009261     -3517.8121355954 -2.86E-02
 SMEAGOL DEBUG| Number of electrons in the unit cell =      1183.9841853086
    74 Broy./SMGL  0.30E+00   64.4     0.00034753     -3517.8098101383  2.33E-03
 SMEAGOL DEBUG| Number of electrons in the unit cell =      1183.9848417124
    75 Broy./SMGL  0.30E+00   65.3     0.00034773     -3517.8152096685 -5.40E-03
 SMEAGOL DEBUG| Number of electrons in the unit cell =      1183.9852132028
    76 Broy./SMGL  0.30E+00   65.0     0.00156882     -3517.8047917680  1.04E-02
 SMEAGOL DEBUG| Number of electrons in the unit cell =      1183.9857845452
    77 Broy./SMGL  0.30E+00   64.9     0.00349178     -3517.8019167519  2.88E-03
 SMEAGOL DEBUG| Number of electrons in the unit cell =      1183.9847924188
    78 Broy./SMGL  0.30E+00   64.7     0.00231091     -3517.7720225140  2.99E-02
 SMEAGOL DEBUG| Number of electrons in the unit cell =      1183.9857151829
    79 Broy./SMGL  0.30E+00   65.2     0.00357100     -3517.7723387717 -3.16E-04
 SMEAGOL DEBUG| Number of electrons in the unit cell =      1183.9840321204
    80 Broy./SMGL  0.30E+00   64.5     0.00355832     -3517.7744473490 -2.11E-03
 SMEAGOL DEBUG| Number of electrons in the unit cell =      1183.9850680344
    81 Broy./SMGL  0.30E+00   65.4     0.00349150     -3517.7394600848  3.50E-02
 SMEAGOL DEBUG| Number of electrons in the unit cell =      1183.9850595995
    82 Broy./SMGL  0.30E+00   64.8     0.00349267     -3517.7574221478 -1.80E-02
 SMEAGOL DEBUG| Number of electrons in the unit cell =      1183.9851307820
    83 Broy./SMGL  0.30E+00   64.3     0.01201832     -3517.7429979963  1.44E-02
 SMEAGOL DEBUG| Number of electrons in the unit cell =      1183.9859271177
    84 Broy./SMGL  0.30E+00   64.8     0.01367073     -3518.0043083950 -2.61E-01
 SMEAGOL DEBUG| Number of electrons in the unit cell =      1183.9831233769
    85 Broy./SMGL  0.30E+00   64.6     0.00576929     -3517.8275377659  1.77E-01
 SMEAGOL DEBUG| Number of electrons in the unit cell =      1183.9827541068
    86 Broy./SMGL  0.30E+00   66.4     0.00334099     -3517.7117878575  1.16E-01
 SMEAGOL DEBUG| Number of electrons in the unit cell =      1183.9819515157
    87 Broy./SMGL  0.30E+00   65.0     0.00757815     -3517.8425019929 -1.31E-01
 SMEAGOL DEBUG| Number of electrons in the unit cell =      1183.9819520027
    88 Broy./SMGL  0.30E+00   65.7     0.00481989     -3518.0090152262 -1.67E-01
 SMEAGOL DEBUG| Number of electrons in the unit cell =      1183.9810258874
    89 Broy./SMGL  0.30E+00   64.3     0.00440308     -3517.8816729148  1.27E-01
 SMEAGOL DEBUG| Number of electrons in the unit cell =      1183.9820766207
    90 Broy./SMGL  0.30E+00   65.2     0.00905325     -3518.0212616782 -1.40E-01
 SMEAGOL DEBUG| Number of electrons in the unit cell =      1183.9820899687
    91 Broy./SMGL  0.30E+00   64.2     0.00970047     -3517.7603795070  2.61E-01
 SMEAGOL DEBUG| Number of electrons in the unit cell =      1183.9823986167
    92 Broy./SMGL  0.30E+00   64.9     0.01062798     -3518.0087103825 -2.48E-01
 SMEAGOL DEBUG| Number of electrons in the unit cell =      1183.9828341435
    93 Broy./SMGL  0.30E+00   65.4     0.01500680     -3518.2399612206 -2.31E-01
 SMEAGOL DEBUG| Number of electrons in the unit cell =      1183.9816128491
    94 Broy./SMGL  0.30E+00   64.5     0.01320081     -3517.9797056111  2.60E-01
 SMEAGOL DEBUG| Number of electrons in the unit cell =      1183.9823264024
    95 Broy./SMGL  0.30E+00   65.6     0.00706319     -3518.2209256554 -2.41E-01
 SMEAGOL DEBUG| Number of electrons in the unit cell =      1183.9835839772
    96 Broy./SMGL  0.30E+00   64.5     0.00449784     -3518.0101213887  2.11E-01
 SMEAGOL DEBUG| Number of electrons in the unit cell =      1183.9819775173
    97 Broy./SMGL  0.30E+00   65.5     0.00312301     -3518.1857628793 -1.76E-01
 SMEAGOL DEBUG| Number of electrons in the unit cell =      1183.9827879396
    98 Broy./SMGL  0.30E+00   64.3     0.01066767     -3518.1879678382 -2.20E-03
 SMEAGOL DEBUG| Number of electrons in the unit cell =      1183.9829446904
    99 Broy./SMGL  0.30E+00   65.3     0.01342834     -3518.0204621119  1.68E-01
 SMEAGOL DEBUG| Number of electrons in the unit cell =      1183.9828118122
   100 Broy./SMGL  0.30E+00   64.8     0.01373425     -3518.0820480497 -6.16E-02
 SMEAGOL DEBUG| Number of electrons in the unit cell =      1183.9835058980
   101 Broy./SMGL  0.30E+00   65.5     0.00536356     -3517.9895999426  9.24E-02
 SMEAGOL DEBUG| Number of electrons in the unit cell =      1183.9834150584
   102 Broy./SMGL  0.30E+00   65.2     0.00336472     -3517.8557643159  1.34E-01
 SMEAGOL DEBUG| Number of electrons in the unit cell =      1183.9839642175
   103 Broy./SMGL  0.30E+00   64.4     0.00940768     -3517.8770955011 -2.13E-02
 SMEAGOL DEBUG| Number of electrons in the unit cell =      1183.9844792819
   104 Broy./SMGL  0.30E+00   65.2     0.00435129     -3517.7023207815  1.75E-01
 SMEAGOL DEBUG| Number of electrons in the unit cell =      1183.9843240938
   105 Broy./SMGL  0.30E+00   65.4     0.00346811     -3517.6881443272  1.42E-02
 SMEAGOL DEBUG| Number of electrons in the unit cell =      1183.9842665487
   106 Broy./SMGL  0.30E+00   65.1     0.00267929     -3517.7493448868 -6.12E-02
 SMEAGOL DEBUG| Number of electrons in the unit cell =      1183.9843545470
   107 Broy./SMGL  0.30E+00   64.4     0.00268546     -3517.7344813874  1.49E-02
 SMEAGOL DEBUG| Number of electrons in the unit cell =      1183.9843617997
   108 Broy./SMGL  0.30E+00   64.9     0.00018623     -3517.7404599520 -5.98E-03
 SMEAGOL DEBUG| Number of electrons in the unit cell =      1183.9841935551
   109 Broy./SMGL  0.30E+00   64.5     0.00292492     -3517.7385060895  1.95E-03
 SMEAGOL DEBUG| Number of electrons in the unit cell =      1183.9841625759
   110 Broy./SMGL  0.30E+00   64.8     0.00300218     -3517.7396232494 -1.12E-03
 SMEAGOL DEBUG| Number of electrons in the unit cell =      1183.9842293032
   111 Broy./SMGL  0.30E+00   64.3     0.00300010     -3517.7471580929 -7.53E-03
 SMEAGOL DEBUG| Number of electrons in the unit cell =      1183.9840102850
   112 Broy./SMGL  0.30E+00   65.3     0.00291726     -3517.7396378309  7.52E-03
 SMEAGOL DEBUG| Number of electrons in the unit cell =      1183.9839055927
   113 Broy./SMGL  0.30E+00   64.7     0.00292450     -3517.7365130445  3.12E-03
 SMEAGOL DEBUG| Number of electrons in the unit cell =      1183.9836823229
   114 Broy./SMGL  0.30E+00   67.4     0.00305978     -3517.7411032087 -4.59E-03
 SMEAGOL DEBUG| Number of electrons in the unit cell =      1183.9837063373
   115 Broy./SMGL  0.30E+00   65.9     0.00344955     -3517.7660136057 -2.49E-02
 SMEAGOL DEBUG| Number of electrons in the unit cell =      1183.9836801945
   116 Broy./SMGL  0.30E+00   66.1     0.00015340     -3517.7818927599 -1.59E-02
 SMEAGOL DEBUG| Number of electrons in the unit cell =      1183.9838249923
   117 Broy./SMGL  0.30E+00   64.9     0.00343696     -3517.7803531652  1.54E-03
[...]
     13       Au     1      11.000         11.000                        -0.000
     14       Au     1      11.000         11.000                         0.000
     15       Au     1      11.000         11.000                         0.000
     16       Au     1      11.000         11.000                         0.000
     17       Au     1      11.000         10.999                         0.001
     18       Au     1      11.000         10.999                         0.001
     19       Au     1      11.000         10.999                         0.001
     20       Au     1      11.000         10.999                         0.001
     21       Au     1      11.000         10.999                         0.001
     22       Au     1      11.000         10.999                         0.001
     23       Au     1      11.000         10.999                         0.001
     24       Au     1      11.000         10.999                         0.001
     25       Au     1      11.000         11.008                        -0.008
     26       Au     1      11.000         11.007                        -0.007
     27       Au     1      11.000         11.006                        -0.006
     28       Au     1      11.000         11.006                        -0.006
     29       Au     1      11.000         11.007                        -0.007
     30       Au     1      11.000         11.007                        -0.007
     31       Au     1      11.000         11.006                        -0.006
     32       Au     1      11.000         11.006                        -0.006
     33       Au     1      11.000         10.992                         0.008
     34       Au     1      11.000         10.992                         0.008
     35       Au     1      11.000         10.994                         0.006
     36       Au     1      11.000         10.995                         0.005
     37       Au     1      11.000         10.994                         0.006
     38       Au     1      11.000         10.994                         0.006
     39       Au     1      11.000         10.994                         0.006
     40       Au     1      11.000         10.995                         0.005
     41       Au     1      11.000         10.988                         0.012
     42       Au     1      11.000         10.985                         0.015
     43       Au     1      11.000         10.988                         0.012
     44       Au     1      11.000         10.988                         0.012
     45       Au     1      11.000         10.991                         0.009
     46       Au     1      11.000         10.994                         0.006
     47       Au     1      11.000         10.988                         0.012
     48       Au     1      11.000         10.988                         0.012
     49       Au     1      11.000         10.998                         0.002
     50       Au     1      11.000         10.998                         0.002
     51       Au     1      11.000         10.940                         0.060
     52       Au     1      11.000         10.997                         0.003
     53       Au     1      11.000         10.948                         0.052
     54       Au     1      11.000         10.948                         0.052
     55       Au     1      11.000         10.940                         0.060
     56       Au     1      11.000         10.997                         0.003
     57       S      2       6.000          5.968                         0.032
     58       C      3       4.000          4.056                        -0.056
     59       H      4       1.000          0.973                         0.027
     60       H      4       1.000          0.972                         0.028
     61       C      3       4.000          4.058                        -0.058
     62       C      3       4.000          4.061                        -0.061
     63       C      3       4.000          4.043                        -0.043
     64       C      3       4.000          4.039                        -0.039
     65       H      4       1.000          0.957                         0.043
     66       H      4       1.000          0.958                         0.042
     67       C      3       4.000          4.009                        -0.009
     68       S      2       6.000          6.040                        -0.040
     69       Au     1      11.000         11.077                        -0.077
     70       Au     1      11.000         11.076                        -0.076
     71       Au     1      11.000         10.964                         0.036
     72       Au     1      11.000         11.063                        -0.063
     73       Au     1      11.000         10.959                         0.041
     74       Au     1      11.000         10.959                         0.041
     75       Au     1      11.000         10.964                         0.036
     76       Au     1      11.000         11.063                        -0.063
     77       Au     1      11.000         10.955                         0.045
     78       Au     1      11.000         10.979                         0.021
     79       Au     1      11.000         10.983                         0.017
     80       Au     1      11.000         10.983                         0.017
     81       Au     1      11.000         11.001                        -0.001
     82       Au     1      11.000         10.954                         0.046
     83       Au     1      11.000         10.984                         0.016
     84       Au     1      11.000         10.984                         0.016
     85       Au     1      11.000         11.030                        -0.030
     86       Au     1      11.000         11.030                        -0.030
     87       Au     1      11.000         11.031                        -0.031
     88       Au     1      11.000         11.030                        -0.030
     89       Au     1      11.000         11.032                        -0.032
     90       Au     1      11.000         11.032                        -0.032
     91       Au     1      11.000         11.031                        -0.031
     92       Au     1      11.000         11.030                        -0.030
     93       Au     1      11.000         10.998                         0.002
     94       Au     1      11.000         10.997                         0.003
     95       Au     1      11.000         10.998                         0.002
     96       Au     1      11.000         10.998                         0.002
     97       Au     1      11.000         10.998                         0.002
     98       Au     1      11.000         10.998                         0.002
     99       Au     1      11.000         10.998                         0.002
    100       Au     1      11.000         10.998                         0.002
    101       Au     1      11.000         11.000                         0.000
    102       Au     1      11.000         11.000                         0.000
    103       Au     1      11.000         11.000                         0.000
    104       Au     1      11.000         11.000                         0.000
    105       Au     1      11.000         11.000                         0.000
    106       Au     1      11.000         11.000                         0.000
    107       Au     1      11.000         11.000                         0.000
    108       Au     1      11.000         11.000                         0.000
    109       Au     1      11.000         11.000                         0.000
    110       Au     1      11.000         11.000                         0.000
    111       Au     1      11.000         11.000                         0.000
    112       Au     1      11.000         11.000                        -0.000
    113       Au     1      11.000         11.000                        -0.000
    114       Au     1      11.000         11.000                        -0.000
    115       Au     1      11.000         11.000                         0.000
    116       Au     1      11.000         11.000                        -0.000

  Total Charge                                                            0.017
 !-----------------------------------------------------------------------------!
 Calculating transmission coefficient

 ENERGY| Total FORCE_EVAL ( QS ) energy [a.u.]:            -3517.715423498675136

 -------------------------------------------------------------------------------
 -                                                                             -
 -                                DBCSR STATISTICS                             -
 -                                                                             -
 -------------------------------------------------------------------------------
 COUNTER                                    TOTAL       BLAS       SMM       ACC
 flops inhomo. stacks                           0       0.0%      0.0%      0.0%
 flops total                         0.000000E+00       0.0%      0.0%      0.0%
 flops max/rank                      0.000000E+00       0.0%      0.0%      0.0%
 matmuls inhomo. stacks                         0       0.0%      0.0%      0.0%
 matmuls total                                  0       0.0%      0.0%      0.0%
 number of processed stacks                     0       0.0%      0.0%      0.0%
 average stack size                                     0.0       0.0       0.0
 marketing flops                     0.000000E+00
 -------------------------------------------------------------------------------
 -                                                                             -
 -                      DBCSR MESSAGE PASSING PERFORMANCE                      -
 -                                                                             -
 -------------------------------------------------------------------------------
 ROUTINE             CALLS      AVE VOLUME [Bytes]
 MP_Bcast                1                     12.
 MP_Allreduce        35209                      8.
 MP_Alltoall         23103                 174895.
 -------------------------------------------------------------------------------

 -------------------------------------------------------------------------------
 -                                                                             -
 -                                DBM STATISTICS                               -
 -                                                                             -
 -------------------------------------------------------------------------------
    M  x    N  x    K                                          COUNT     PERCENT
 -------------------------------------------------------------------------------

 -------------------------------------------------------------------------------
 -                                                                             -
 -                                GRID STATISTICS                              -
 -                                                                             -
 -------------------------------------------------------------------------------
 LP    KERNEL             BACKEND                              COUNT     PERCENT
 4     collocate ortho    REF                               35144950      47.49%
 4     integrate ortho    REF                               35043375      47.35%
 3     collocate ortho    REF                                1538662       2.08%
 3     integrate ortho    REF                                1534215       2.07%
 0     collocate general  REF                                 250560       0.34%
 0     integrate general  REF                                 222720       0.30%
 2     collocate ortho    REF                                 137016       0.19%
 2     integrate ortho    REF                                 136620       0.18%
 -------------------------------------------------------------------------------

 MEMORY| Estimated peak process memory [MiB]                                1137

 -------------------------------------------------------------------------------
 ----                             MULTIGRID INFO                            ----
 -------------------------------------------------------------------------------
 count for grid        1:        1699776          cutoff [a.u.]          200.00
 count for grid        2:        2260471          cutoff [a.u.]           66.67
 count for grid        3:        1204019          cutoff [a.u.]           22.22
 count for grid        4:         414152          cutoff [a.u.]            7.41
 total gridlevel count  :        5578418

 -------------------------------------------------------------------------------
 -                                                                             -
 -                         MESSAGE PASSING PERFORMANCE                         -
 -                                                                             -
 -------------------------------------------------------------------------------

 ROUTINE             CALLS      AVE VOLUME [Bytes]
 MP_Group                5
 MP_Bcast           251411                   6260.
 MP_Allreduce        27675                 948390.
 MP_Sync              4150
 MP_Alltoall          6235              679761600.
 MP_ISendRecv       330298                   4000.
 MP_Wait            408528
 MP_ISend           112719                  37093.
 MP_IRecv           112817                  37063.
 MP_Recv             30294                 271360.
 MP_Write_All            2                 248850.
 -------------------------------------------------------------------------------


 -------------------------------------------------------------------------------
 -                                                                             -
 -                           R E F E R E N C E S                               -
 -                                                                             -
 -------------------------------------------------------------------------------
 
 CP2K version 2022.1 (Development Version), the CP2K developers group (2022).
 CP2K is freely available from https://www.cp2k.org/ .

 Kuehne,Thomas D.; Iannuzzi,Marcella; Del Ben,Mauro;
 Rybkin,Vladimir V.; Seewald,Patrick; Stein,Frederick; Laino,Teodoro;
 Khaliullin,Rustam Z.; Schuett,Ole; Schiffmann,Florian; Golze,Dorothea;
 Wilhelm,Jan; Chulkov,Sergey; Bani-Hashemian,Mohammad Hossein;
 Weber,Valery; Borstnik,Urban; Taillefumier,Mathieu;
 Jakobovits,Alice Shoshana; Lazzaro,Alfio; Pabst,Hans; Mueller,Tiziano;
 Schade,Robert; Guidon,Manuel; Andermatt,Samuel; Holmberg,Nico;
 Schenter,Gregory K.; Hehn,Anna; Bussy,Augustin; Belleflamme,Fabian;
 Tabacchi,Gloria; Gloess,Andreas; Lass,Michael; Bethune,Iain;
 Mundy,Christopher J.; Plessl,Christian; Watkins,Matt;
 VandeVondele,Joost; Krack,Matthias; Hutter,Juerg. 
 The Journal of Chemical Physics, 152 (19), (2020). 
 CP2K: An electronic structure and molecular dynamics software package -
 Quickstep: Efficient and accurate electronic structure calculations.
 https://doi.org/10.1063/5.0007045

 Togo, Atsushi; Tanaka, Isao. arXiv, 1808.01590 (2018). 
 Spglib : a software library for crystal symmetry search.
 https://doi.org/xxx

 Schuett, Ole; Messmer, Peter; Hutter, Juerg; VandeVondele, Joost. 
 Electronic Structure Calculations on Graphics Processing Units, John
 Wiley & Sons, Ltd, 173-190 (2016). 
 GPU-Accelerated Sparse Matrix-Matrix Multiplication for
 Linear Scaling Density Functional Theory.
 https://doi.org/10.1002/9781118670712.ch8

 Heinecke, A; Henry, G; Hutchinson, M; Pabst, H. 
 Proceedings of Intl. Supercomputing Conference, 981-991 (2016). 
 LIBXSMM: Accelerating Small Matrix Multiplications
 by Runtime Code Generation.
 https://doi.org/10.1109/SC.2016.83

 Borstnik, U; VandeVondele, J; Weber, V; Hutter, J. 
 PARALLEL COMPUTING, 40 (5-6), 47-58 (2014). 
 Sparse matrix multiplication: The distributed block-compressed sparse
 row library.
 https://doi.org/10.1016/j.parco.2014.03.012

 Hutter, J; Iannuzzi, M; Schiffmann, F; VandeVondele, J. 
 WIREs Comput Mol Sci., 4 (1), 15-25 (2014). 
 CP2K: atomistic simulations of condensed matter systems.
 https://doi.org/10.1002/wcms.1159

 VandeVondele, J; Hutter, J. 
 JOURNAL OF CHEMICAL PHYSICS, 127 (11), 114105 (2007). 
 Gaussian basis sets for accurate calculations on molecular systems in
 gas and condensed phases.
 https://doi.org/10.1063/1.2770708

 Krack, M. 
 THEORETICAL CHEMISTRY ACCOUNTS, 114 (1-3), 145-152 (2005). 
 Pseudopotentials for H to Kr optimized for gradient-corrected
 exchange-correlation functionals.
 https://doi.org/10.1007/s00214-005-0655-y

 VandeVondele, J; Krack, M; Mohamed, F; Parrinello, M; Chassaing, T;
 Hutter, J. COMPUTER PHYSICS COMMUNICATIONS, 167 (2), 103-128 (2005). 
 QUICKSTEP: Fast and accurate density functional calculations using a
 mixed Gaussian and plane waves approach.
 https://doi.org/10.1016/j.cpc.2004.12.014

 Frigo, M; Johnson, SG. 
 PROCEEDINGS OF THE IEEE, 93 (2), 216-231 (2005). 
 The design and implementation of FFTW3.
 https://doi.org/10.1109/JPROC.2004.840301

 Hartwigsen, C; Goedecker, S; Hutter, J. 
 PHYSICAL REVIEW B, 58 (7), 3641-3662 (1998). 
 Relativistic separable dual-space Gaussian pseudopotentials from H to Rn.
 https://doi.org/10.1103/PhysRevB.58.3641

 Lippert, G; Hutter, J; Parrinello, M. 
 MOLECULAR PHYSICS, 92 (3), 477-487 (1997). 
 A hybrid Gaussian and plane wave density functional scheme.
 https://doi.org/10.1080/002689797170220

 Goedecker, S; Teter, M; Hutter, J. 
 PHYSICAL REVIEW B, 54 (3), 1703-1710 (1996). 
 Separable dual-space Gaussian pseudopotentials.
 https://doi.org/10.1103/PhysRevB.54.1703


 -------------------------------------------------------------------------------
 -                                                                             -
 -                                T I M I N G                                  -
 -                                                                             -
 -------------------------------------------------------------------------------
 SUBROUTINE                       CALLS  ASD         SELF TIME        TOTAL TIME
                                MAXIMUM       AVERAGE  MAXIMUM  AVERAGE  MAXIMUM
 CP2K                                 1  1.0     0.03     0.04 22658.52 22658.70
 qs_energies                          1  2.0     0.00     0.00 22658.25 22658.49
 scf_env_do_scf                       1  3.0     0.00     0.00 22587.84 22588.02
 scf_env_do_scf_inner_loop          345  4.0     0.03     1.01 22587.84 22588.02
 run_smeagol_emtrans                346  6.0 21647.01 21992.86 22551.20 22572.68
 qs_scf_new_mos_kp                  345  5.0     0.00     0.01 22483.70 22505.11
 -------------------------------------------------------------------------------

 The number of warnings for this run is : 0
 
 -------------------------------------------------------------------------------
  **** **** ******  **  PROGRAM ENDED AT                 2023-03-16 02:53:31.972
 ***** ** ***  *** **   PROGRAM RAN ON                     cn1000.scarf.rl.ac.uk
 **    ****   ******    PROGRAM RAN BY                                 scarf1157
 ***** **    ** ** **   PROGRAM PROCESS ID                                 62455
  **** **  *******  **  PROGRAM STOPPED IN /work4/scd/scarf1157/work/testing/cp2
                                           k-smeagol/bdt/cp2k/hollow-site/transp
                                           ort-cp2k/5-4/geometry-ordered/3x3-4/s
                                           z/bulk_layers-4/transmission/exp/dzvp
                                           /sergey/kpoints_bulk-2-2-100_em-2-2-1
                                           _hlb-t-auto_iv
