 DBCSR| CPU Multiplication driver                                           XSMM
 DBCSR| Multrec recursion limit                                              512
 DBCSR| Multiplication stack size                                           1000
 DBCSR| Maximum elements for images                                    UNLIMITED
 DBCSR| Multiplicative factor virtual images                                   1
 DBCSR| Use multiplication densification                                       T
 DBCSR| Multiplication size stacks                                             3
 DBCSR| Use memory pool for CPU allocation                                     F
 DBCSR| Number of 3D layers                                               SINGLE
 DBCSR| Use MPI memory allocation                                              F
 DBCSR| Use RMA algorithm                                                      F
 DBCSR| Use Communication thread                                               T
 DBCSR| Communication thread load                                             83
 DBCSR| MPI: My node id                                                        0
 DBCSR| MPI: Number of nodes                                                 256
 DBCSR| OMP: Current number of threads                                         2
 DBCSR| OMP: Max number of threads                                             2
 DBCSR| Split modifier for TAS multiplication algorithm                  1.0E+00


  **** **** ******  **  PROGRAM STARTED AT               2024-01-10 21:28:38.425
 ***** ** ***  *** **   PROGRAM STARTED ON                           hx1-c06-1-1
 **    ****   ******    PROGRAM STARTED BY                                cahart
 ***** **    ** ** **   PROGRAM PROCESS ID                               2620850
  **** **  *******  **  PROGRAM STARTED IN /gpfs/home/cahart/transport/melamine/
                                           au_from-h2/iv-curve/geo_opt/c2/iv_cur
                                           ve/V_0.0

 CP2K| version string:                 CP2K version 2022.1 (Development Version)
 CP2K| source code revision number:                                  git:5518aa6
 CP2K| cp2kflags: omp libint fftw3 libxc parallel mpi3 scalapack xsmm plumed2   
 CP2K| is freely available from                            https://www.cp2k.org/
 CP2K| Program compiled at                          Thu 21 Sep 19:20:17 BST 2023
 CP2K| Program compiled on                                       hx1-c12-login-1
 CP2K| Program compiled for                                                local
 CP2K| Data directory path    /gpfs/easybuild/prod/software/CP2K/2022.1-foss-202
 CP2K| Input file name                                                4_0.0V.inp

 GLOBAL| Force Environment number                                              1
 GLOBAL| Basis set file name                                        BASIS_MOLOPT
 GLOBAL| Potential file name                                      GTH_POTENTIALS
 GLOBAL| MM Potential file name                                     MM_POTENTIAL
 GLOBAL| Coordinate file name                                             em.xyz
 GLOBAL| Method name                                                        CP2K
 GLOBAL| Project name                                                       0.0V
 GLOBAL| Run type                                                        GEO_OPT
 GLOBAL| FFT library                                                       FFTW3
 GLOBAL| Diagonalization library                                       ScaLAPACK
 GLOBAL| Orthonormality check for eigenvectors                          DISABLED
 GLOBAL| Matrix multiplication library                                 ScaLAPACK
 GLOBAL| All-to-all communication in single precision                          F
 GLOBAL| FFTs using library dependent lengths                                  T
 GLOBAL| Grid backend                                                       AUTO
 GLOBAL| Global print level                                               MEDIUM
 GLOBAL| MPI I/O enabled                                                       T
 GLOBAL| Total number of message passing processes                           256
 GLOBAL| Number of threads for this process                                    2
 GLOBAL| This output is from process                                           0
 GLOBAL| Stack size for threads created by OpenMP (OMP_STACKSIZE)        default
 GLOBAL| CPU model name             Intel(R) Xeon(R) Platinum 8358 CPU @ 2.60GHz
 GLOBAL| CPUID                                                              1003

 MEMORY| system memory details [Kb]
 MEMORY|                        rank 0           min           max       average
 MEMORY| MemTotal            527652788     527652788     527739644     527663645
 MEMORY| MemFree             507925576     507925576     512554908     509054177
 MEMORY| Buffers                  5480          5388          5492          5470
 MEMORY| Cached                2116740       1972992       2248460       2125814
 MEMORY| Slab                  1639804       1567684       1648796       1623315
 MEMORY| SReclaimable           712072        648728        724136        701377
 MEMORY| MemLikelyFree       510759868     510759868     515236128     511886838


 *** Fundamental physical constants (SI units) ***

 *** Literature: B. J. Mohr and B. N. Taylor,
 ***             CODATA recommended values of the fundamental physical
 ***             constants: 2006, Web Version 5.1
 ***             http://physics.nist.gov/constants

 Speed of light in vacuum [m/s]                             2.99792458000000E+08
 Magnetic constant or permeability of vacuum [N/A**2]       1.25663706143592E-06
 Electric constant or permittivity of vacuum [F/m]          8.85418781762039E-12
 Planck constant (h) [J*s]                                  6.62606896000000E-34
 Planck constant (h-bar) [J*s]                              1.05457162825177E-34
 Elementary charge [C]                                      1.60217648700000E-19
 Electron mass [kg]                                         9.10938215000000E-31
 Electron g factor [ ]                                     -2.00231930436220E+00
 Proton mass [kg]                                           1.67262163700000E-27
 Fine-structure constant                                    7.29735253760000E-03
 Rydberg constant [1/m]                                     1.09737315685270E+07
 Avogadro constant [1/mol]                                  6.02214179000000E+23
 Boltzmann constant [J/K]                                   1.38065040000000E-23
 Atomic mass unit [kg]                                      1.66053878200000E-27
 Bohr radius [m]                                            5.29177208590000E-11

 *** Conversion factors ***

 [u] -> [a.u.]                                              1.82288848426455E+03
 [Angstrom] -> [Bohr] = [a.u.]                              1.88972613288564E+00
 [a.u.] = [Bohr] -> [Angstrom]                              5.29177208590000E-01
 [a.u.] -> [s]                                              2.41888432650478E-17
 [a.u.] -> [fs]                                             2.41888432650478E-02
 [a.u.] -> [J]                                              4.35974393937059E-18
 [a.u.] -> [N]                                              8.23872205491840E-08
 [a.u.] -> [K]                                              3.15774647902944E+05
 [a.u.] -> [kJ/mol]                                         2.62549961709828E+03
 [a.u.] -> [kcal/mol]                                       6.27509468713739E+02
 [a.u.] -> [Pa]                                             2.94210107994716E+13
 [a.u.] -> [bar]                                            2.94210107994716E+08
 [a.u.] -> [atm]                                            2.90362800883016E+08
 [a.u.] -> [eV]                                             2.72113838565563E+01
 [a.u.] -> [Hz]                                             6.57968392072181E+15
 [a.u.] -> [1/cm] (wave numbers)                            2.19474631370540E+05
 [a.u./Bohr**2] -> [1/cm]                                   5.14048714338585E+03
 

 CELL_TOP| Volume [angstrom^3]:                                      4593.719514
 CELL_TOP| Vector a [angstrom    14.582     0.000     0.000   |a| =    14.582000
 CELL_TOP| Vector b [angstrom     0.000     8.866     0.000   |b| =     8.866000
 CELL_TOP| Vector c [angstrom     0.000     0.000    35.532   |c| =    35.532000
 CELL_TOP| Angle (b,c), alpha [degree]:                                90.000000
 CELL_TOP| Angle (a,c), beta  [degree]:                                90.000000
 CELL_TOP| Angle (a,b), gamma [degree]:                                90.000000
 CELL_TOP| Numerically orthorhombic:                                         YES
 CELL_TOP| Periodicity                                                       XYZ

 GENERATE|  Preliminary Number of Bonds generated:                             0
 GENERATE|  Achieved consistency in connectivity generation.

 CELL| Volume [angstrom^3]:                                          4593.719514
 CELL| Vector a [angstrom]:      14.582     0.000     0.000   |a| =    14.582000
 CELL| Vector b [angstrom]:       0.000     8.866     0.000   |b| =     8.866000
 CELL| Vector c [angstrom]:       0.000     0.000    35.532   |c| =    35.532000
 CELL| Angle (b,c), alpha [degree]:                                    90.000000
 CELL| Angle (a,c), beta  [degree]:                                    90.000000
 CELL| Angle (a,b), gamma [degree]:                                    90.000000
 CELL| Numerically orthorhombic:                                             YES
 CELL| Periodicity                                                           XYZ

 CELL_REF| Volume [angstrom^3]:                                      4593.719514
 CELL_REF| Vector a [angstrom    14.582     0.000     0.000   |a| =    14.582000
 CELL_REF| Vector b [angstrom     0.000     8.866     0.000   |b| =     8.866000
 CELL_REF| Vector c [angstrom     0.000     0.000    35.532   |c| =    35.532000
 CELL_REF| Angle (b,c), alpha [degree]:                                90.000000
 CELL_REF| Angle (a,c), beta  [degree]:                                90.000000
 CELL_REF| Angle (a,b), gamma [degree]:                                90.000000
 CELL_REF| Numerically orthorhombic:                                         YES
 CELL_REF| Periodicity                                                       XYZ

 *** WARNING in cryssym.F:165 :: Symmetry library SPGLIB not available ***


 *******************************************************************************
                                    Kpoints
 *******************************************************************************
 BRILLOUIN| K-point scheme                                        Monkhorst-Pack
 BRILLOUIN| K-Point grid                                             2    4    1
 BRILLOUIN| Accuracy in Symmetry determination                      0.100000E-07
 BRILLOUIN| K-Point point group symmetrization                               OFF
 BRILLOUIN| Wavefunction type                                            COMPLEX
 BRILLOUIN| Use full k-point grid     
 BRILLOUIN| List of Kpoints [2 Pi/Bohr]                                        8
 BRILLOUIN| Number           Weight            X              Y              Z
 BRILLOUIN|     1           0.12500       -0.25000       -0.37500        0.00000
 BRILLOUIN|     2           0.12500       -0.25000       -0.12500        0.00000
 BRILLOUIN|     3           0.12500       -0.25000        0.12500        0.00000
 BRILLOUIN|     4           0.12500       -0.25000        0.37500        0.00000
 BRILLOUIN|     5           0.12500        0.25000       -0.37500        0.00000
 BRILLOUIN|     6           0.12500        0.25000       -0.12500        0.00000
 BRILLOUIN|     7           0.12500        0.25000        0.12500        0.00000
 BRILLOUIN|     8           0.12500        0.25000        0.37500        0.00000
 *******************************************************************************

 *******************************************************************************
 *******************************************************************************
 **                                                                           **
 **     #####                         ##              ##                      **
 **    ##   ##            ##          ##              ##                      **
 **   ##     ##                       ##            ######                    **
 **   ##     ##  ##   ##  ##   #####  ##  ##   ####   ##    #####    #####    **
 **   ##     ##  ##   ##  ##  ##      ## ##   ##      ##   ##   ##  ##   ##   **
 **   ##  ## ##  ##   ##  ##  ##      ####     ###    ##   ######   ######    **
 **    ##  ###   ##   ##  ##  ##      ## ##      ##   ##   ##       ##        **
 **     #######   #####   ##   #####  ##  ##  ####    ##    #####   ##        **
 **           ##                                                    ##        **
 **                                                                           **
 **                                                ... make the atoms dance   **
 **                                                                           **
 **            Copyright (C) by CP2K developers group (2000-2022)             **
 **                      J. Chem. Phys. 152, 194103 (2020)                    **
 **                                                                           **
 *******************************************************************************

 DFT| Spin restricted Kohn-Sham (RKS) calculation                            RKS
 DFT| Multiplicity                                                             1
 DFT| Number of spin states                                                    1
 DFT| Charge                                                                   0
 DFT| Self-interaction correction (SIC)                                       NO
 DFT| Cutoffs: density                                              1.000000E-10
 DFT|          gradient                                             1.000000E-10
 DFT|          tau                                                  1.000000E-10
 DFT|          cutoff_smoothing_range                               0.000000E+00
 DFT| XC density smoothing                                                  NONE
 DFT| XC derivatives                                                          PW

 FUNCTIONAL| PBE:
 FUNCTIONAL| J.P.Perdew, K.Burke, M.Ernzerhof, Phys. Rev. Letter, vol. 77, n 18,
 FUNCTIONAL|  pp. 3865-3868, (1996){spin unpolarized}                           


 QS| Method:                                                                 GPW
 QS| Density plane wave grid type                        NON-SPHERICAL FULLSPACE
 QS| Number of grid levels:                                                    4
 QS| Density cutoff [a.u.]:                                                300.0
 QS| Multi grid cutoff [a.u.]: 1) grid level                               300.0
 QS|                           2) grid level                               100.0
 QS|                           3) grid level                                33.3
 QS|                           4) grid level                                11.1
 QS| Grid level progression factor:                                          3.0
 QS| Relative density cutoff [a.u.]:                                        30.0
 QS| Interaction thresholds: eps_pgf_orb:                                1.0E-05
 QS|                         eps_filter_matrix:                          0.0E+00
 QS|                         eps_core_charge:                            1.0E-12
 QS|                         eps_rho_gspace:                             1.0E-10
 QS|                         eps_rho_rspace:                             1.0E-10
 QS|                         eps_gvg_rspace:                             1.0E-05
 QS|                         eps_ppl:                                    1.0E-02
 QS|                         eps_ppnl:                                   1.0E-07


 ATOMIC KIND INFORMATION

  1. Atomic kind: Au_bulk                               Number of atoms:     120

     Orbital Basis Set                                     SZV-MOLOPT-SR-GTH-q11

       Number of orbital shell sets:                                           1
       Number of orbital shells:                                               3
       Number of primitive Cartesian functions:                                5
       Number of Cartesian basis functions:                                   10
       Number of spherical basis functions:                                    9
       Norm type:                                                              2

       Normalised Cartesian orbitals:

                        Set   Shell   Orbital            Exponent    Coefficient

                          1       1    2s                2.950008       0.074626
                                                         1.563057      -0.007898
                                                         0.666664      -0.297688
                                                         0.251083       0.136809
                                                         0.081714       0.088198

                          1       2    3px               2.950008       0.148824
                                                         1.563057       0.025430
                                                         0.666664      -0.123003
                                                         0.251083       0.033648
                                                         0.081714       0.059008
                          1       2    3py               2.950008       0.148824
                                                         1.563057       0.025430
                                                         0.666664      -0.123003
                                                         0.251083       0.033648
                                                         0.081714       0.059008
                          1       2    3pz               2.950008       0.148824
                                                         1.563057       0.025430
                                                         0.666664      -0.123003
                                                         0.251083       0.033648
                                                         0.081714       0.059008

                          1       3    4dx2              2.950008      -0.139595
                                                         1.563057       1.319655
                                                         0.666664       0.377081
                                                         0.251083       0.046872
                                                         0.081714       0.001393
                          1       3    4dxy              2.950008      -0.241786
                                                         1.563057       2.285709
                                                         0.666664       0.653124
                                                         0.251083       0.081185
                                                         0.081714       0.002412
                          1       3    4dxz              2.950008      -0.241786
                                                         1.563057       2.285709
                                                         0.666664       0.653124
                                                         0.251083       0.081185
                                                         0.081714       0.002412
                          1       3    4dy2              2.950008      -0.139595
                                                         1.563057       1.319655
                                                         0.666664       0.377081
                                                         0.251083       0.046872
                                                         0.081714       0.001393
                          1       3    4dyz              2.950008      -0.241786
                                                         1.563057       2.285709
                                                         0.666664       0.653124
                                                         0.251083       0.081185
                                                         0.081714       0.002412
                          1       3    4dz2              2.950008      -0.139595
                                                         1.563057       1.319655
                                                         0.666664       0.377081
                                                         0.251083       0.046872
                                                         0.081714       0.001393

       Atomic covalent radius [Angstrom]:                                  1.340

       Atomic van der Waals radius [Angstrom]:                             1.660

     GTH Potential information for                                   GTH-PBE-q11

       Description:                       Goedecker-Teter-Hutter pseudopotential
                                           Goedecker et al., PRB 54, 1703 (1996)
                                          Hartwigsen et al., PRB 58, 3641 (1998)
                                                      Krack, TCA 114, 145 (2005)

       Gaussian exponent of the core charge distribution:               1.436369
       Electronic configuration (s p d ...):                           1   0  10

       Parameters of the local part of the GTH pseudopotential:

                          rloc        C1          C2          C3          C4
                        0.590000   10.517179

       Parameters of the non-local part of the GTH pseudopotential:

                   l      r(l)      h(i,j,l)

                   0    0.543847    5.786811   -2.250680
                                   -2.250680    2.905615
                   1    0.609173    4.284049   -4.071285
                                   -4.071285    4.817210
                   2    0.437309   -7.403281    3.010193
                                    3.010193   -3.413238

  2. Atomic kind: Au                                    Number of atoms:      30

     Orbital Basis Set                                     SZV-MOLOPT-SR-GTH-q11

       Number of orbital shell sets:                                           1
       Number of orbital shells:                                               3
       Number of primitive Cartesian functions:                                5
       Number of Cartesian basis functions:                                   10
       Number of spherical basis functions:                                    9
       Norm type:                                                              2

       Normalised Cartesian orbitals:

                        Set   Shell   Orbital            Exponent    Coefficient

                          1       1    2s                2.950008       0.074626
                                                         1.563057      -0.007898
                                                         0.666664      -0.297688
                                                         0.251083       0.136809
                                                         0.081714       0.088198

                          1       2    3px               2.950008       0.148824
                                                         1.563057       0.025430
                                                         0.666664      -0.123003
                                                         0.251083       0.033648
                                                         0.081714       0.059008
                          1       2    3py               2.950008       0.148824
                                                         1.563057       0.025430
                                                         0.666664      -0.123003
                                                         0.251083       0.033648
                                                         0.081714       0.059008
                          1       2    3pz               2.950008       0.148824
                                                         1.563057       0.025430
                                                         0.666664      -0.123003
                                                         0.251083       0.033648
                                                         0.081714       0.059008

                          1       3    4dx2              2.950008      -0.139595
                                                         1.563057       1.319655
                                                         0.666664       0.377081
                                                         0.251083       0.046872
                                                         0.081714       0.001393
                          1       3    4dxy              2.950008      -0.241786
                                                         1.563057       2.285709
                                                         0.666664       0.653124
                                                         0.251083       0.081185
                                                         0.081714       0.002412
                          1       3    4dxz              2.950008      -0.241786
                                                         1.563057       2.285709
                                                         0.666664       0.653124
                                                         0.251083       0.081185
                                                         0.081714       0.002412
                          1       3    4dy2              2.950008      -0.139595
                                                         1.563057       1.319655
                                                         0.666664       0.377081
                                                         0.251083       0.046872
                                                         0.081714       0.001393
                          1       3    4dyz              2.950008      -0.241786
                                                         1.563057       2.285709
                                                         0.666664       0.653124
                                                         0.251083       0.081185
                                                         0.081714       0.002412
                          1       3    4dz2              2.950008      -0.139595
                                                         1.563057       1.319655
                                                         0.666664       0.377081
                                                         0.251083       0.046872
                                                         0.081714       0.001393

       Atomic covalent radius [Angstrom]:                                  1.340

       Atomic van der Waals radius [Angstrom]:                             1.660

     GTH Potential information for                                   GTH-PBE-q11

       Description:                       Goedecker-Teter-Hutter pseudopotential
                                           Goedecker et al., PRB 54, 1703 (1996)
                                          Hartwigsen et al., PRB 58, 3641 (1998)
                                                      Krack, TCA 114, 145 (2005)

       Gaussian exponent of the core charge distribution:               1.436369
       Electronic configuration (s p d ...):                           1   0  10

       Parameters of the local part of the GTH pseudopotential:

                          rloc        C1          C2          C3          C4
                        0.590000   10.517179

       Parameters of the non-local part of the GTH pseudopotential:

                   l      r(l)      h(i,j,l)

                   0    0.543847    5.786811   -2.250680
                                   -2.250680    2.905615
                   1    0.609173    4.284049   -4.071285
                                   -4.071285    4.817210
                   2    0.437309   -7.403281    3.010193
                                    3.010193   -3.413238

  3. Atomic kind: Au_surf                               Number of atoms:      15

     Orbital Basis Set                                    DZVP-MOLOPT-SR-GTH-q11

       Number of orbital shell sets:                                           1
       Number of orbital shells:                                               7
       Number of primitive Cartesian functions:                                5
       Number of Cartesian basis functions:                                   30
       Number of spherical basis functions:                                   25
       Norm type:                                                              2

       Normalised Cartesian orbitals:

                        Set   Shell   Orbital            Exponent    Coefficient

                          1       1    2s                2.950008       0.074626
                                                         1.563057      -0.007898
                                                         0.666664      -0.297688
                                                         0.251083       0.136809
                                                         0.081714       0.088198

                          1       2    3s                2.950008       0.228793
                                                         1.563057      -0.295041
                                                         0.666664       0.955676
                                                         0.251083      -0.809517
                                                         0.081714       0.207484

                          1       3    3px               2.950008       0.148824
                                                         1.563057       0.025430
                                                         0.666664      -0.123003
                                                         0.251083       0.033648
                                                         0.081714       0.059008
                          1       3    3py               2.950008       0.148824
                                                         1.563057       0.025430
                                                         0.666664      -0.123003
                                                         0.251083       0.033648
                                                         0.081714       0.059008
                          1       3    3pz               2.950008       0.148824
                                                         1.563057       0.025430
                                                         0.666664      -0.123003
                                                         0.251083       0.033648
                                                         0.081714       0.059008

                          1       4    4px               2.950008       0.169603
                                                         1.563057      -0.791540
                                                         0.666664       0.759522
                                                         0.251083      -0.513201
                                                         0.081714       0.071875
                          1       4    4py               2.950008       0.169603
                                                         1.563057      -0.791540
                                                         0.666664       0.759522
                                                         0.251083      -0.513201
                                                         0.081714       0.071875
                          1       4    4pz               2.950008       0.169603
                                                         1.563057      -0.791540
                                                         0.666664       0.759522
                                                         0.251083      -0.513201
                                                         0.081714       0.071875

                          1       5    4dx2              2.950008      -0.139595
                                                         1.563057       1.319655
                                                         0.666664       0.377081
                                                         0.251083       0.046872
                                                         0.081714       0.001393
                          1       5    4dxy              2.950008      -0.241786
                                                         1.563057       2.285709
                                                         0.666664       0.653124
                                                         0.251083       0.081185
                                                         0.081714       0.002412
                          1       5    4dxz              2.950008      -0.241786
                                                         1.563057       2.285709
                                                         0.666664       0.653124
                                                         0.251083       0.081185
                                                         0.081714       0.002412
                          1       5    4dy2              2.950008      -0.139595
                                                         1.563057       1.319655
                                                         0.666664       0.377081
                                                         0.251083       0.046872
                                                         0.081714       0.001393
                          1       5    4dyz              2.950008      -0.241786
                                                         1.563057       2.285709
                                                         0.666664       0.653124
                                                         0.251083       0.081185
                                                         0.081714       0.002412
                          1       5    4dz2              2.950008      -0.139595
                                                         1.563057       1.319655
                                                         0.666664       0.377081
                                                         0.251083       0.046872
                                                         0.081714       0.001393

                          1       6    5dx2              2.950008      -0.047309
                                                         1.563057      -0.613535
                                                         0.666664      -0.083031
                                                         0.251083      -0.023136
                                                         0.081714       0.021870
                          1       6    5dxy              2.950008      -0.081942
                                                         1.563057      -1.062673
                                                         0.666664      -0.143813
                                                         0.251083      -0.040072
                                                         0.081714       0.037880
                          1       6    5dxz              2.950008      -0.081942
                                                         1.563057      -1.062673
                                                         0.666664      -0.143813
                                                         0.251083      -0.040072
                                                         0.081714       0.037880
                          1       6    5dy2              2.950008      -0.047309
                                                         1.563057      -0.613535
                                                         0.666664      -0.083031
                                                         0.251083      -0.023136
                                                         0.081714       0.021870
                          1       6    5dyz              2.950008      -0.081942
                                                         1.563057      -1.062673
                                                         0.666664      -0.143813
                                                         0.251083      -0.040072
                                                         0.081714       0.037880
                          1       6    5dz2              2.950008      -0.047309
                                                         1.563057      -0.613535
                                                         0.666664      -0.083031
                                                         0.251083      -0.023136
                                                         0.081714       0.021870

                          1       7    5fx3              2.950008      -0.072925
                                                         1.563057      -0.623736
                                                         0.666664      -0.068759
                                                         0.251083      -0.019565
                                                         0.081714       0.005642
                          1       7    5fx2y             2.950008      -0.163065
                                                         1.563057      -1.394716
                                                         0.666664      -0.153751
                                                         0.251083      -0.043748
                                                         0.081714       0.012617
                          1       7    5fx2z             2.950008      -0.163065
                                                         1.563057      -1.394716
                                                         0.666664      -0.153751
                                                         0.251083      -0.043748
                                                         0.081714       0.012617
                          1       7    5fxy2             2.950008      -0.163065
                                                         1.563057      -1.394716
                                                         0.666664      -0.153751
                                                         0.251083      -0.043748
                                                         0.081714       0.012617
                          1       7    5fxyz             2.950008      -0.282436
                                                         1.563057      -2.415719
                                                         0.666664      -0.266304
                                                         0.251083      -0.075774
                                                         0.081714       0.021853
                          1       7    5fxz2             2.950008      -0.163065
                                                         1.563057      -1.394716
                                                         0.666664      -0.153751
                                                         0.251083      -0.043748
                                                         0.081714       0.012617
                          1       7    5fy3              2.950008      -0.072925
                                                         1.563057      -0.623736
                                                         0.666664      -0.068759
                                                         0.251083      -0.019565
                                                         0.081714       0.005642
                          1       7    5fy2z             2.950008      -0.163065
                                                         1.563057      -1.394716
                                                         0.666664      -0.153751
                                                         0.251083      -0.043748
                                                         0.081714       0.012617
                          1       7    5fyz2             2.950008      -0.163065
                                                         1.563057      -1.394716
                                                         0.666664      -0.153751
                                                         0.251083      -0.043748
                                                         0.081714       0.012617
                          1       7    5fz3              2.950008      -0.072925
                                                         1.563057      -0.623736
                                                         0.666664      -0.068759
                                                         0.251083      -0.019565
                                                         0.081714       0.005642

       Atomic covalent radius [Angstrom]:                                  1.340

       Atomic van der Waals radius [Angstrom]:                             1.660

     GTH Potential information for                                   GTH-PBE-q11

       Description:                       Goedecker-Teter-Hutter pseudopotential
                                           Goedecker et al., PRB 54, 1703 (1996)
                                          Hartwigsen et al., PRB 58, 3641 (1998)
                                                      Krack, TCA 114, 145 (2005)

       Gaussian exponent of the core charge distribution:               1.436369
       Electronic configuration (s p d ...):                           1   0  10

       Parameters of the local part of the GTH pseudopotential:

                          rloc        C1          C2          C3          C4
                        0.590000   10.517179

       Parameters of the non-local part of the GTH pseudopotential:

                   l      r(l)      h(i,j,l)

                   0    0.543847    5.786811   -2.250680
                                   -2.250680    2.905615
                   1    0.609173    4.284049   -4.071285
                                   -4.071285    4.817210
                   2    0.437309   -7.403281    3.010193
                                    3.010193   -3.413238

  4. Atomic kind: N                                     Number of atoms:       6

     Orbital Basis Set                                        DZVP-MOLOPT-GTH-q5

       Number of orbital shell sets:                                           1
       Number of orbital shells:                                               5
       Number of primitive Cartesian functions:                                7
       Number of Cartesian basis functions:                                   14
       Number of spherical basis functions:                                   13
       Norm type:                                                              2

       Normalised Cartesian orbitals:

                        Set   Shell   Orbital            Exponent    Coefficient

                          1       1    2s                9.042730      -0.237404
                                                         3.882225      -0.265910
                                                         1.512880       0.102064
                                                         0.586631       0.295369
                                                         0.222851       0.088647
                                                         0.084583       0.003860
                                                         0.039194       0.000722

                          1       2    3s                9.042730       0.259152
                                                         3.882225       0.251432
                                                         1.512880      -0.043896
                                                         0.586631      -0.328079
                                                         0.222851       0.175857
                                                         0.084583       0.069169
                                                         0.039194       0.004207

                          1       3    3px               9.042730       0.822162
                                                         3.882225       0.990771
                                                         1.512880       0.665657
                                                         0.586631       0.321705
                                                         0.222851       0.063706
                                                         0.084583       0.004155
                                                         0.039194      -0.000005
                          1       3    3py               9.042730       0.822162
                                                         3.882225       0.990771
                                                         1.512880       0.665657
                                                         0.586631       0.321705
                                                         0.222851       0.063706
                                                         0.084583       0.004155
                                                         0.039194      -0.000005
                          1       3    3pz               9.042730       0.822162
                                                         3.882225       0.990771
                                                         1.512880       0.665657
                                                         0.586631       0.321705
                                                         0.222851       0.063706
                                                         0.084583       0.004155
                                                         0.039194      -0.000005

                          1       4    4px               9.042730      -0.251449
                                                         3.882225      -0.215479
                                                         1.512880      -0.200519
                                                         0.586631      -0.125283
                                                         0.222851       0.136219
                                                         0.084583       0.034362
                                                         0.039194       0.000879
                          1       4    4py               9.042730      -0.251449
                                                         3.882225      -0.215479
                                                         1.512880      -0.200519
                                                         0.586631      -0.125283
                                                         0.222851       0.136219
                                                         0.084583       0.034362
                                                         0.039194       0.000879
                          1       4    4pz               9.042730      -0.251449
                                                         3.882225      -0.215479
                                                         1.512880      -0.200519
                                                         0.586631      -0.125283
                                                         0.222851       0.136219
                                                         0.084583       0.034362
                                                         0.039194       0.000879

                          1       5    4dx2              9.042730       1.099742
                                                         3.882225       0.532064
                                                         1.512880       0.873643
                                                         0.586631       0.456348
                                                         0.222851       0.017840
                                                         0.084583      -0.000857
                                                         0.039194      -0.000086
                          1       5    4dxy              9.042730       1.904809
                                                         3.882225       0.921562
                                                         1.512880       1.513195
                                                         0.586631       0.790419
                                                         0.222851       0.030900
                                                         0.084583      -0.001484
                                                         0.039194      -0.000150
                          1       5    4dxz              9.042730       1.904809
                                                         3.882225       0.921562
                                                         1.512880       1.513195
                                                         0.586631       0.790419
                                                         0.222851       0.030900
                                                         0.084583      -0.001484
                                                         0.039194      -0.000150
                          1       5    4dy2              9.042730       1.099742
                                                         3.882225       0.532064
                                                         1.512880       0.873643
                                                         0.586631       0.456348
                                                         0.222851       0.017840
                                                         0.084583      -0.000857
                                                         0.039194      -0.000086
                          1       5    4dyz              9.042730       1.904809
                                                         3.882225       0.921562
                                                         1.512880       1.513195
                                                         0.586631       0.790419
                                                         0.222851       0.030900
                                                         0.084583      -0.001484
                                                         0.039194      -0.000150
                          1       5    4dz2              9.042730       1.099742
                                                         3.882225       0.532064
                                                         1.512880       0.873643
                                                         0.586631       0.456348
                                                         0.222851       0.017840
                                                         0.084583      -0.000857
                                                         0.039194      -0.000086

       Atomic covalent radius [Angstrom]:                                  0.750

       Atomic van der Waals radius [Angstrom]:                             1.550

     GTH Potential information for                                    GTH-PBE-q5

       Description:                       Goedecker-Teter-Hutter pseudopotential
                                           Goedecker et al., PRB 54, 1703 (1996)
                                          Hartwigsen et al., PRB 58, 3641 (1998)
                                                      Krack, TCA 114, 145 (2005)

       Gaussian exponent of the core charge distribution:               6.208322
       Electronic configuration (s p d ...):                               2   3

       Parameters of the local part of the GTH pseudopotential:

                          rloc        C1          C2          C3          C4
                        0.283791  -12.415226    1.868096

       Parameters of the non-local part of the GTH pseudopotential:

                   l      r(l)      h(i,j,l)

                   0    0.255405   13.630263
                   1    0.245495

  5. Atomic kind: H                                     Number of atoms:       4

     Orbital Basis Set                                        DZVP-MOLOPT-SR-GTH

       Number of orbital shell sets:                                           1
       Number of orbital shells:                                               3
       Number of primitive Cartesian functions:                                5
       Number of Cartesian basis functions:                                    5
       Number of spherical basis functions:                                    5
       Norm type:                                                              2

       Normalised Cartesian orbitals:

                        Set   Shell   Orbital            Exponent    Coefficient

                          1       1    2s               10.068468      -0.133023
                                                         2.680223      -0.177618
                                                         0.791502      -0.258419
                                                         0.239116      -0.107525
                                                         0.082193      -0.014019

                          1       2    3s               10.068468       0.344673
                                                         2.680223       1.819821
                                                         0.791502      -0.999069
                                                         0.239116       0.017430
                                                         0.082193       0.082660

                          1       3    3px              10.068468       0.155326
                                                         2.680223       0.367157
                                                         0.791502       0.311480
                                                         0.239116       0.080105
                                                         0.082193       0.033440
                          1       3    3py              10.068468       0.155326
                                                         2.680223       0.367157
                                                         0.791502       0.311480
                                                         0.239116       0.080105
                                                         0.082193       0.033440
                          1       3    3pz              10.068468       0.155326
                                                         2.680223       0.367157
                                                         0.791502       0.311480
                                                         0.239116       0.080105
                                                         0.082193       0.033440

       Atomic covalent radius [Angstrom]:                                  0.320

       Atomic van der Waals radius [Angstrom]:                             1.090

     GTH Potential information for                                    GTH-PBE-q1

       Description:                       Goedecker-Teter-Hutter pseudopotential
                                           Goedecker et al., PRB 54, 1703 (1996)
                                          Hartwigsen et al., PRB 58, 3641 (1998)
                                                      Krack, TCA 114, 145 (2005)

       Gaussian exponent of the core charge distribution:              12.500000
       Electronic configuration (s p d ...):                                   1

       Parameters of the local part of the GTH pseudopotential:

                          rloc        C1          C2          C3          C4
                        0.200000   -4.178900    0.724463

  6. Atomic kind: C                                     Number of atoms:       3

     Orbital Basis Set                                        DZVP-MOLOPT-GTH-q4

       Number of orbital shell sets:                                           1
       Number of orbital shells:                                               5
       Number of primitive Cartesian functions:                                7
       Number of Cartesian basis functions:                                   14
       Number of spherical basis functions:                                   13
       Norm type:                                                              2

       Normalised Cartesian orbitals:

                        Set   Shell   Orbital            Exponent    Coefficient

                          1       1    2s                6.132625      -0.263661
                                                         2.625196      -0.231112
                                                         1.045457       0.042712
                                                         0.478316       0.306085
                                                         0.178617       0.065483
                                                         0.075145       0.000568
                                                         0.030287       0.000417

                          1       2    3s                6.132625       0.131937
                                                         2.625196       0.414269
                                                         1.045457      -0.593590
                                                         0.478316       0.644922
                                                         0.178617       0.069203
                                                         0.075145      -0.145101
                                                         0.030287       0.008247

                          1       3    3px               6.132625       0.562677
                                                         2.625196       0.633910
                                                         1.045457       0.379157
                                                         0.478316       0.235193
                                                         0.178617       0.052379
                                                         0.075145       0.003677
                                                         0.030287       0.000105
                          1       3    3py               6.132625       0.562677
                                                         2.625196       0.633910
                                                         1.045457       0.379157
                                                         0.478316       0.235193
                                                         0.178617       0.052379
                                                         0.075145       0.003677
                                                         0.030287       0.000105
                          1       3    3pz               6.132625       0.562677
                                                         2.625196       0.633910
                                                         1.045457       0.379157
                                                         0.478316       0.235193
                                                         0.178617       0.052379
                                                         0.075145       0.003677
                                                         0.030287       0.000105

                          1       4    4px               6.132625      -0.472364
                                                         2.625196      -0.221326
                                                         1.045457      -0.481781
                                                         0.478316       0.135466
                                                         0.178617       0.072281
                                                         0.075145       0.024920
                                                         0.030287       0.002706
                          1       4    4py               6.132625      -0.472364
                                                         2.625196      -0.221326
                                                         1.045457      -0.481781
                                                         0.478316       0.135466
                                                         0.178617       0.072281
                                                         0.075145       0.024920
                                                         0.030287       0.002706
                          1       4    4pz               6.132625      -0.472364
                                                         2.625196      -0.221326
                                                         1.045457      -0.481781
                                                         0.478316       0.135466
                                                         0.178617       0.072281
                                                         0.075145       0.024920
                                                         0.030287       0.002706

                          1       5    4dx2              6.132625       0.874783
                                                         2.625196       0.375772
                                                         1.045457       0.653959
                                                         0.478316       0.191007
                                                         0.178617       0.018656
                                                         0.075145       0.003649
                                                         0.030287      -0.000011
                          1       5    4dxy              6.132625       1.515169
                                                         2.625196       0.650856
                                                         1.045457       1.132690
                                                         0.478316       0.330834
                                                         0.178617       0.032314
                                                         0.075145       0.006321
                                                         0.030287      -0.000019
                          1       5    4dxz              6.132625       1.515169
                                                         2.625196       0.650856
                                                         1.045457       1.132690
                                                         0.478316       0.330834
                                                         0.178617       0.032314
                                                         0.075145       0.006321
                                                         0.030287      -0.000019
                          1       5    4dy2              6.132625       0.874783
                                                         2.625196       0.375772
                                                         1.045457       0.653959
                                                         0.478316       0.191007
                                                         0.178617       0.018656
                                                         0.075145       0.003649
                                                         0.030287      -0.000011
                          1       5    4dyz              6.132625       1.515169
                                                         2.625196       0.650856
                                                         1.045457       1.132690
                                                         0.478316       0.330834
                                                         0.178617       0.032314
                                                         0.075145       0.006321
                                                         0.030287      -0.000019
                          1       5    4dz2              6.132625       0.874783
                                                         2.625196       0.375772
                                                         1.045457       0.653959
                                                         0.478316       0.191007
                                                         0.178617       0.018656
                                                         0.075145       0.003649
                                                         0.030287      -0.000011

       Atomic covalent radius [Angstrom]:                                  0.770

       Atomic van der Waals radius [Angstrom]:                             1.700

     GTH Potential information for                                    GTH-PBE-q4

       Description:                       Goedecker-Teter-Hutter pseudopotential
                                           Goedecker et al., PRB 54, 1703 (1996)
                                          Hartwigsen et al., PRB 58, 3641 (1998)
                                                      Krack, TCA 114, 145 (2005)

       Gaussian exponent of the core charge distribution:               4.364419
       Electronic configuration (s p d ...):                               2   2

       Parameters of the local part of the GTH pseudopotential:

                          rloc        C1          C2          C3          C4
                        0.338471   -8.803674    1.339211

       Parameters of the non-local part of the GTH pseudopotential:

                   l      r(l)      h(i,j,l)

                   0    0.302576    9.622487
                   1    0.291507

  7. Atomic kind: Au_tip                                Number of atoms:       5

     Orbital Basis Set                                    DZVP-MOLOPT-SR-GTH-q11

       Number of orbital shell sets:                                           1
       Number of orbital shells:                                               7
       Number of primitive Cartesian functions:                                5
       Number of Cartesian basis functions:                                   30
       Number of spherical basis functions:                                   25
       Norm type:                                                              2

       Normalised Cartesian orbitals:

                        Set   Shell   Orbital            Exponent    Coefficient

                          1       1    2s                2.950008       0.074626
                                                         1.563057      -0.007898
                                                         0.666664      -0.297688
                                                         0.251083       0.136809
                                                         0.081714       0.088198

                          1       2    3s                2.950008       0.228793
                                                         1.563057      -0.295041
                                                         0.666664       0.955676
                                                         0.251083      -0.809517
                                                         0.081714       0.207484

                          1       3    3px               2.950008       0.148824
                                                         1.563057       0.025430
                                                         0.666664      -0.123003
                                                         0.251083       0.033648
                                                         0.081714       0.059008
                          1       3    3py               2.950008       0.148824
                                                         1.563057       0.025430
                                                         0.666664      -0.123003
                                                         0.251083       0.033648
                                                         0.081714       0.059008
                          1       3    3pz               2.950008       0.148824
                                                         1.563057       0.025430
                                                         0.666664      -0.123003
                                                         0.251083       0.033648
                                                         0.081714       0.059008

                          1       4    4px               2.950008       0.169603
                                                         1.563057      -0.791540
                                                         0.666664       0.759522
                                                         0.251083      -0.513201
                                                         0.081714       0.071875
                          1       4    4py               2.950008       0.169603
                                                         1.563057      -0.791540
                                                         0.666664       0.759522
                                                         0.251083      -0.513201
                                                         0.081714       0.071875
                          1       4    4pz               2.950008       0.169603
                                                         1.563057      -0.791540
                                                         0.666664       0.759522
                                                         0.251083      -0.513201
                                                         0.081714       0.071875

                          1       5    4dx2              2.950008      -0.139595
                                                         1.563057       1.319655
                                                         0.666664       0.377081
                                                         0.251083       0.046872
                                                         0.081714       0.001393
                          1       5    4dxy              2.950008      -0.241786
                                                         1.563057       2.285709
                                                         0.666664       0.653124
                                                         0.251083       0.081185
                                                         0.081714       0.002412
                          1       5    4dxz              2.950008      -0.241786
                                                         1.563057       2.285709
                                                         0.666664       0.653124
                                                         0.251083       0.081185
                                                         0.081714       0.002412
                          1       5    4dy2              2.950008      -0.139595
                                                         1.563057       1.319655
                                                         0.666664       0.377081
                                                         0.251083       0.046872
                                                         0.081714       0.001393
                          1       5    4dyz              2.950008      -0.241786
                                                         1.563057       2.285709
                                                         0.666664       0.653124
                                                         0.251083       0.081185
                                                         0.081714       0.002412
                          1       5    4dz2              2.950008      -0.139595
                                                         1.563057       1.319655
                                                         0.666664       0.377081
                                                         0.251083       0.046872
                                                         0.081714       0.001393

                          1       6    5dx2              2.950008      -0.047309
                                                         1.563057      -0.613535
                                                         0.666664      -0.083031
                                                         0.251083      -0.023136
                                                         0.081714       0.021870
                          1       6    5dxy              2.950008      -0.081942
                                                         1.563057      -1.062673
                                                         0.666664      -0.143813
                                                         0.251083      -0.040072
                                                         0.081714       0.037880
                          1       6    5dxz              2.950008      -0.081942
                                                         1.563057      -1.062673
                                                         0.666664      -0.143813
                                                         0.251083      -0.040072
                                                         0.081714       0.037880
                          1       6    5dy2              2.950008      -0.047309
                                                         1.563057      -0.613535
                                                         0.666664      -0.083031
                                                         0.251083      -0.023136
                                                         0.081714       0.021870
                          1       6    5dyz              2.950008      -0.081942
                                                         1.563057      -1.062673
                                                         0.666664      -0.143813
                                                         0.251083      -0.040072
                                                         0.081714       0.037880
                          1       6    5dz2              2.950008      -0.047309
                                                         1.563057      -0.613535
                                                         0.666664      -0.083031
                                                         0.251083      -0.023136
                                                         0.081714       0.021870

                          1       7    5fx3              2.950008      -0.072925
                                                         1.563057      -0.623736
                                                         0.666664      -0.068759
                                                         0.251083      -0.019565
                                                         0.081714       0.005642
                          1       7    5fx2y             2.950008      -0.163065
                                                         1.563057      -1.394716
                                                         0.666664      -0.153751
                                                         0.251083      -0.043748
                                                         0.081714       0.012617
                          1       7    5fx2z             2.950008      -0.163065
                                                         1.563057      -1.394716
                                                         0.666664      -0.153751
                                                         0.251083      -0.043748
                                                         0.081714       0.012617
                          1       7    5fxy2             2.950008      -0.163065
                                                         1.563057      -1.394716
                                                         0.666664      -0.153751
                                                         0.251083      -0.043748
                                                         0.081714       0.012617
                          1       7    5fxyz             2.950008      -0.282436
                                                         1.563057      -2.415719
                                                         0.666664      -0.266304
                                                         0.251083      -0.075774
                                                         0.081714       0.021853
                          1       7    5fxz2             2.950008      -0.163065
                                                         1.563057      -1.394716
                                                         0.666664      -0.153751
                                                         0.251083      -0.043748
                                                         0.081714       0.012617
                          1       7    5fy3              2.950008      -0.072925
                                                         1.563057      -0.623736
                                                         0.666664      -0.068759
                                                         0.251083      -0.019565
                                                         0.081714       0.005642
                          1       7    5fy2z             2.950008      -0.163065
                                                         1.563057      -1.394716
                                                         0.666664      -0.153751
                                                         0.251083      -0.043748
                                                         0.081714       0.012617
                          1       7    5fyz2             2.950008      -0.163065
                                                         1.563057      -1.394716
                                                         0.666664      -0.153751
                                                         0.251083      -0.043748
                                                         0.081714       0.012617
                          1       7    5fz3              2.950008      -0.072925
                                                         1.563057      -0.623736
                                                         0.666664      -0.068759
                                                         0.251083      -0.019565
                                                         0.081714       0.005642

       Atomic covalent radius [Angstrom]:                                  1.340

       Atomic van der Waals radius [Angstrom]:                             1.660

     GTH Potential information for                                   GTH-PBE-q11

       Description:                       Goedecker-Teter-Hutter pseudopotential
                                           Goedecker et al., PRB 54, 1703 (1996)
                                          Hartwigsen et al., PRB 58, 3641 (1998)
                                                      Krack, TCA 114, 145 (2005)

       Gaussian exponent of the core charge distribution:               1.436369
[...]
      90     Au       3         10.735372                              0.264628
      91     N        4          5.309006                             -0.309006
      92     N        4          5.311807                             -0.311807
      93     N        4          5.275138                             -0.275138
      94     H        5          0.871321                              0.128679
      95     H        5          0.844620                              0.155380
      96     C        6          3.823233                              0.176767
      97     C        6          3.834656                              0.165344
      98     N        4          4.993766                              0.006234
      99     N        4          5.152750                             -0.152750
     100     H        5          0.866704                              0.133296
     101     C        6          3.918076                              0.081924
     102     N        4          5.243638                             -0.243638
     103     H        5          0.908040                              0.091960
     104     Au       7         10.971308                              0.028692
     105     Au       7         10.656488                              0.343512
     106     Au       7         10.683291                              0.316709
     107     Au       7         10.657125                              0.342875
     108     Au       7         10.683357                              0.316643
     109     Au       2         11.006646                             -0.006646
     110     Au       2         11.014576                             -0.014576
     111     Au       2         11.014532                             -0.014532
     112     Au       2         11.024996                             -0.024996
     113     Au       2         11.190762                             -0.190762
     114     Au       2         11.190854                             -0.190854
     115     Au       2         10.976294                              0.023706
     116     Au       2         11.154073                             -0.154073
     117     Au       2         11.152604                             -0.152604
     118     Au       2         11.036284                             -0.036284
     119     Au       2         11.183078                             -0.183078
     120     Au       2         11.183048                             -0.183048
     121     Au       2         10.999225                              0.000775
     122     Au       2         11.012999                             -0.012999
     123     Au       2         11.012931                             -0.012931
     124     Au       1         11.009895                             -0.009895
     125     Au       1         11.009964                             -0.009964
     126     Au       1         11.011123                             -0.011123
     127     Au       1         11.033622                             -0.033622
     128     Au       1         11.034213                             -0.034213
     129     Au       1         11.044231                             -0.044231
     130     Au       1         10.973007                              0.026993
     131     Au       1         10.974029                              0.025971
     132     Au       1         10.993203                              0.006797
     133     Au       1         11.006412                             -0.006412
     134     Au       1         11.007486                             -0.007486
     135     Au       1         11.021047                             -0.021047
     136     Au       1         11.028491                             -0.028491
     137     Au       1         11.029127                             -0.029127
     138     Au       1         11.036742                             -0.036742
     139     Au       1         11.004931                             -0.004931
     140     Au       1         11.005029                             -0.005029
     141     Au       1         11.004807                             -0.004807
     142     Au       1         11.004283                             -0.004283
     143     Au       1         11.005272                             -0.005272
     144     Au       1         11.005029                             -0.005029
     145     Au       1         10.967849                              0.032151
     146     Au       1         10.967539                              0.032461
     147     Au       1         10.967178                              0.032822
     148     Au       1         11.012149                             -0.012149
     149     Au       1         11.012972                             -0.012972
     150     Au       1         11.012731                             -0.012731
     151     Au       1         10.998491                              0.001509
     152     Au       1         10.998551                              0.001449
     153     Au       1         10.998325                              0.001675
     154     Au       1         11.000837                             -0.000837
     155     Au       1         11.000905                             -0.000905
     156     Au       1         11.001111                             -0.001111
     157     Au       1         11.014209                             -0.014209
     158     Au       1         11.014281                             -0.014281
     159     Au       1         11.014413                             -0.014413
     160     Au       1         10.970029                              0.029971
     161     Au       1         10.970065                              0.029935
     162     Au       1         10.970305                              0.029695
     163     Au       1         11.006488                             -0.006488
     164     Au       1         11.006533                             -0.006533
     165     Au       1         11.006684                             -0.006684
     166     Au       1         11.007020                             -0.007020
     167     Au       1         11.007090                             -0.007090
     168     Au       1         11.007228                             -0.007228
     169     Au       1         11.007226                             -0.007226
     170     Au       1         11.007506                             -0.007506
     171     Au       1         11.007298                             -0.007298
     172     Au       1         11.006631                             -0.006631
     173     Au       1         11.006872                             -0.006872
     174     Au       1         11.006683                             -0.006683
     175     Au       1         10.970201                              0.029799
     176     Au       1         10.970536                              0.029464
     177     Au       1         10.970244                              0.029756
     178     Au       1         11.014402                             -0.014402
     179     Au       1         11.014670                             -0.014670
     180     Au       1         11.014474                             -0.014474
     181     Au       1         11.000968                             -0.000968
     182     Au       1         11.001246                             -0.001246
     183     Au       1         11.001037                             -0.001037
 # Total charge                           1915.952165                  0.047835

 !-----------------------------------------------------------------------------!

 ENERGY| Total FORCE_EVAL ( QS ) energy [a.u.]:            -5729.584537065784389

 -------------------------------------------------------------------------------
 -                                                                             -
 -                                DBCSR STATISTICS                             -
 -                                                                             -
 -------------------------------------------------------------------------------
 COUNTER                                    TOTAL       BLAS       SMM       ACC
 flops inhomo. stacks                           0       0.0%      0.0%      0.0%
 flops total                         0.000000E+00       0.0%      0.0%      0.0%
 flops max/rank                      0.000000E+00       0.0%      0.0%      0.0%
 matmuls inhomo. stacks                         0       0.0%      0.0%      0.0%
 matmuls total                                  0       0.0%      0.0%      0.0%
 number of processed stacks                     0       0.0%      0.0%      0.0%
 average stack size                                     0.0       0.0       0.0
 marketing flops                     0.000000E+00
 -------------------------------------------------------------------------------
 -                                                                             -
 -                      DBCSR MESSAGE PASSING PERFORMANCE                      -
 -                                                                             -
 -------------------------------------------------------------------------------
 ROUTINE             CALLS      AVE VOLUME [Bytes]
 MP_Bcast                1                     12.
 MP_Allreduce         9741                      8.
 MP_Alltoall          3888                 217549.
 -------------------------------------------------------------------------------

 -------------------------------------------------------------------------------
 -                                                                             -
 -                                DBM STATISTICS                               -
 -                                                                             -
 -------------------------------------------------------------------------------
    M  x    N  x    K                                          COUNT     PERCENT
 -------------------------------------------------------------------------------

 -------------------------------------------------------------------------------
 -                                                                             -
 -                                GRID STATISTICS                              -
 -                                                                             -
 -------------------------------------------------------------------------------
 LP    KERNEL             BACKEND                              COUNT     PERCENT
 4     collocate ortho    REF                               18773712      36.91%
 4     integrate ortho    REF                               18094067      35.58%
 5     integrate ortho    REF                                4056549       7.98%
 5     collocate ortho    REF                                3638136       7.15%
 0     collocate general  REF                                2108160       4.15%
 0     integrate general  REF                                1873920       3.68%
 6     integrate ortho    REF                                 710783       1.40%
 6     collocate ortho    REF                                 626824       1.23%
 3     collocate ortho    REF                                 359181       0.71%
 3     integrate ortho    REF                                 346946       0.68%
 1     integrate general  REF                                 187392       0.37%
 2     collocate ortho    REF                                  33048       0.06%
 2     integrate ortho    REF                                  31833       0.06%
 7     integrate ortho    REF                                  18436       0.04%
 -------------------------------------------------------------------------------

 MEMORY| Estimated peak process memory [MiB]                                 971

 -------------------------------------------------------------------------------
 ----                             MULTIGRID INFO                            ----
 -------------------------------------------------------------------------------
 count for grid        1:       10577039          cutoff [a.u.]          300.00
 count for grid        2:       13580319          cutoff [a.u.]          100.00
 count for grid        3:        6652522          cutoff [a.u.]           33.33
 count for grid        4:        5287442          cutoff [a.u.]           11.11
 total gridlevel count  :       36097322

 -------------------------------------------------------------------------------
 -                                                                             -
 -                         MESSAGE PASSING PERFORMANCE                         -
 -                                                                             -
 -------------------------------------------------------------------------------

 ROUTINE             CALLS      AVE VOLUME [Bytes]
 MP_Group                5
 MP_Bcast            35239                  46369.
 MP_Allreduce         7580                    627.
 MP_Sync              1638
 MP_Alltoall          4397              330234398.
 MP_ISendRecv       138210                  13020.
 MP_Wait            167288
 MP_comm_split           4
 MP_ISend            61409                  57799.
 MP_IRecv            61689                  57563.
 MP_Recv             20139                 507740.
 MP_Write_All           10                  13904.
 -------------------------------------------------------------------------------


 -------------------------------------------------------------------------------
 -                                                                             -
 -                           R E F E R E N C E S                               -
 -                                                                             -
 -------------------------------------------------------------------------------
 
 CP2K version 2022.1 (Development Version), the CP2K developers group (2022).
 CP2K is freely available from https://www.cp2k.org/ .

 Kuehne,Thomas D.; Iannuzzi,Marcella; Del Ben,Mauro;
 Rybkin,Vladimir V.; Seewald,Patrick; Stein,Frederick; Laino,Teodoro;
 Khaliullin,Rustam Z.; Schuett,Ole; Schiffmann,Florian; Golze,Dorothea;
 Wilhelm,Jan; Chulkov,Sergey; Bani-Hashemian,Mohammad Hossein;
 Weber,Valery; Borstnik,Urban; Taillefumier,Mathieu;
 Jakobovits,Alice Shoshana; Lazzaro,Alfio; Pabst,Hans; Mueller,Tiziano;
 Schade,Robert; Guidon,Manuel; Andermatt,Samuel; Holmberg,Nico;
 Schenter,Gregory K.; Hehn,Anna; Bussy,Augustin; Belleflamme,Fabian;
 Tabacchi,Gloria; Gloess,Andreas; Lass,Michael; Bethune,Iain;
 Mundy,Christopher J.; Plessl,Christian; Watkins,Matt;
 VandeVondele,Joost; Krack,Matthias; Hutter,Juerg. 
 The Journal of Chemical Physics, 152 (19), (2020). 
 CP2K: An electronic structure and molecular dynamics software package -
 Quickstep: Efficient and accurate electronic structure calculations.
 https://doi.org/10.1063/5.0007045

 Schuett, Ole; Messmer, Peter; Hutter, Juerg; VandeVondele, Joost. 
 Electronic Structure Calculations on Graphics Processing Units, John
 Wiley & Sons, Ltd, 173-190 (2016). 
 GPU-Accelerated Sparse Matrix-Matrix Multiplication for
 Linear Scaling Density Functional Theory.
 https://doi.org/10.1002/9781118670712.ch8

 Heinecke, A; Henry, G; Hutchinson, M; Pabst, H. 
 Proceedings of Intl. Supercomputing Conference, 981-991 (2016). 
 LIBXSMM: Accelerating Small Matrix Multiplications
 by Runtime Code Generation.
 https://doi.org/10.1109/SC.2016.83

 Borstnik, U; VandeVondele, J; Weber, V; Hutter, J. 
 PARALLEL COMPUTING, 40 (5-6), 47-58 (2014). 
 Sparse matrix multiplication: The distributed block-compressed sparse
 row library.
 https://doi.org/10.1016/j.parco.2014.03.012

 Hutter, J; Iannuzzi, M; Schiffmann, F; VandeVondele, J. 
 WIREs Comput Mol Sci., 4 (1), 15-25 (2014). 
 CP2K: atomistic simulations of condensed matter systems.
 https://doi.org/10.1002/wcms.1159

 VandeVondele, J; Hutter, J. 
 JOURNAL OF CHEMICAL PHYSICS, 127 (11), 114105 (2007). 
 Gaussian basis sets for accurate calculations on molecular systems in
 gas and condensed phases.
 https://doi.org/10.1063/1.2770708

 Krack, M. 
 THEORETICAL CHEMISTRY ACCOUNTS, 114 (1-3), 145-152 (2005). 
 Pseudopotentials for H to Kr optimized for gradient-corrected
 exchange-correlation functionals.
 https://doi.org/10.1007/s00214-005-0655-y

 VandeVondele, J; Krack, M; Mohamed, F; Parrinello, M; Chassaing, T;
 Hutter, J. COMPUTER PHYSICS COMMUNICATIONS, 167 (2), 103-128 (2005). 
 QUICKSTEP: Fast and accurate density functional calculations using a
 mixed Gaussian and plane waves approach.
 https://doi.org/10.1016/j.cpc.2004.12.014

 Frigo, M; Johnson, SG. 
 PROCEEDINGS OF THE IEEE, 93 (2), 216-231 (2005). 
 The design and implementation of FFTW3.
 https://doi.org/10.1109/JPROC.2004.840301

 Hartwigsen, C; Goedecker, S; Hutter, J. 
 PHYSICAL REVIEW B, 58 (7), 3641-3662 (1998). 
 Relativistic separable dual-space Gaussian pseudopotentials from H to Rn.
 https://doi.org/10.1103/PhysRevB.58.3641

 Lippert, G; Hutter, J; Parrinello, M. 
 MOLECULAR PHYSICS, 92 (3), 477-487 (1997). 
 A hybrid Gaussian and plane wave density functional scheme.
 https://doi.org/10.1080/002689797170220

 Perdew, JP; Burke, K; Ernzerhof, M. 
 PHYSICAL REVIEW LETTERS, 77 (18), 3865-3868 (1996). 
 Generalized gradient approximation made simple.
 https://doi.org/10.1103/PhysRevLett.77.3865

 Goedecker, S; Teter, M; Hutter, J. 
 PHYSICAL REVIEW B, 54 (3), 1703-1710 (1996). 
 Separable dual-space Gaussian pseudopotentials.
 https://doi.org/10.1103/PhysRevB.54.1703


 -------------------------------------------------------------------------------
 -                                                                             -
 -                                T I M I N G                                  -
 -                                                                             -
 -------------------------------------------------------------------------------
 SUBROUTINE                       CALLS  ASD         SELF TIME        TOTAL TIME
                                MAXIMUM       AVERAGE  MAXIMUM  AVERAGE  MAXIMUM
 CP2K                                 1  1.0    0.058    0.069 1227.760 1227.770
 cp_geo_opt                           1  2.0    0.000    0.000 1227.463 1227.473
 geoopt_bfgs                          1  3.0    0.006    0.013 1227.463 1227.473
 cp_eval_at                           5  4.0    0.001    0.002 1226.714 1226.724
 qs_energies                          5  5.8    0.001    0.001 1223.123 1223.179
 scf_env_do_scf                       5  6.8    0.000    0.000 1194.207 1194.272
 scf_env_do_scf_inner_loop          131  7.9    0.007    0.018 1194.207 1194.271
 run_smeagol_emtrans                136  9.8 1160.265 1163.261 1167.522 1167.611
 qs_scf_new_mos_kp                  131  8.9    0.001    0.001 1147.011 1147.054
 qs_forces                            4  5.0    0.001    0.001 1142.980 1142.989
 rebuild_ks_matrix                  135  9.8    0.001    0.001   24.631   24.636
 qs_ks_build_kohn_sham_matrix       135 10.8    0.097    0.467   24.631   24.636
 -------------------------------------------------------------------------------

 The number of warnings for this run is : 3
 
 -------------------------------------------------------------------------------
  **** **** ******  **  PROGRAM ENDED AT                 2024-01-10 21:49:07.694
 ***** ** ***  *** **   PROGRAM RAN ON                               hx1-c06-1-1
 **    ****   ******    PROGRAM RAN BY                                    cahart
 ***** **    ** ** **   PROGRAM PROCESS ID                               2620850
  **** **  *******  **  PROGRAM STOPPED IN /gpfs/home/cahart/transport/melamine/
                                           au_from-h2/iv-curve/geo_opt/c2/iv_cur
                                           ve/V_0.0
