     116
 i =        1, E =     -3518.3259026830
 Au         0.0000000000        0.0000000000        0.0000000000
 Au         0.0000013821        4.1476541482        0.0000000000
 Au         2.0751117719        2.0738270741        0.0000000000
 Au         2.0751131540        6.2214812223        0.0000000000
 Au         4.1502221617        0.0000000000        0.0000000000
 Au         4.1502235438        4.1476541482        0.0000000000
 Au         6.2253339336        2.0738270741        0.0000000000
 Au         6.2253353157        6.2214812223        0.0000000000
 Au         0.0000105680        2.0738271430        2.0728962464
 Au         0.0000119501        6.2214812912        2.0728962464
 Au         2.0751209578        0.0000000689        2.0728962464
 Au         2.0751223399        4.1476542171        2.0728962464
 Au         4.1502327297        2.0738271430        2.0728962464
 Au         4.1502341118        6.2214812912        2.0728962464
 Au         6.2253431195        0.0000000689        2.0728962464
 Au         6.2253445016        4.1476542171        2.0728962464
 Au         0.0000197539        0.0000001378        4.1457924928
 Au         0.0000211360        4.1476542860        4.1457924928
 Au         2.0751315258        2.0738272119        4.1457924928
 Au         2.0751329079        6.2214813601        4.1457924928
 Au         4.1502419156        0.0000001378        4.1457924928
 Au         4.1502432977        4.1476542860        4.1457924928
 Au         6.2253536875        2.0738272119        4.1457924928
 Au         6.2253550696        6.2214813601        4.1457924928
 Au         0.0000303219        2.0738272808        6.2186887392
 Au         0.0000317040        6.2214814291        6.2186887392
 Au         2.0751407117        0.0000002067        6.2186887392
 Au         2.0751420938        4.1476543549        6.2186887392
 Au         4.1502524836        2.0738272808        6.2186887392
 Au         4.1502538657        6.2214814291        6.2186887392
 Au         6.2253628734        0.0000002067        6.2186887392
 Au         6.2253642555        4.1476543549        6.2186887392
 Au         0.0000395079        0.0000002756        8.2915849856
 Au         0.0000408899        4.1476544239        8.2915849856
 Au         2.0751512798        2.0738273497        8.2915849856
 Au         2.0751526618        6.2214814980        8.2915849856
 Au         4.1502616696        0.0000002756        8.2915849856
 Au         4.1502630516        4.1476544239        8.2915849856
 Au         6.2253734415        2.0738273497        8.2915849856
 Au         6.2253748235        6.2214814980        8.2915849856
 Au         0.0000456132        2.0738278067       10.3661717738
 Au         0.0000498644        6.2214763337       10.3637141036
 Au         2.0751082836        0.0000547289       10.3636621449
 Au         2.0751066988        4.1476081005       10.3636537496
 Au         4.1502705424        2.0738195556       10.3597198767
 Au         4.1502720881        6.2214682511       10.3660547237
 Au         6.2254374310        0.0000548877       10.3636598714
 Au         6.2254418515        4.1476079580       10.3636513111
 Au         0.0000615434       -0.0004019049       12.4376854317
 Au         0.0000630150        4.1480647558       12.4376928294
 Au         2.0676932863        2.0738376849       12.4388079865
 Au         2.0747109843        6.2214806920       12.4376655025
 Au         4.1502808911       -0.0078560387       12.4380339740
 Au         4.1502824913        4.1554188187       12.4381046344
 Au         6.2328358380        2.0738379288       12.4388395989
 Au         6.2258570452        6.2214807958       12.4376664608
  S         4.1503794218        2.0741008852       14.0902308345
  C         4.1501113713        2.0790276979       15.8526787487
  H         2.0281232390        2.1037421199       16.0204274213
  H         6.2718003021        2.1037391498       16.0266379474
  C         2.9640112696        2.0824476759       16.5764343611
  C         5.3342426463        2.0824624604       16.5783614139
  C         2.9554637296        2.0631989718       17.9447873672
  C         5.3255039584        2.0632139488       17.9463122335
  H         2.0176108538        2.0419150886       18.4957873312
  H         6.2616508137        2.0419114575       18.5019976472
  C         4.1397761502        2.0666848413       18.6700661038
  S         4.1498049980        2.0735173851       20.4328709194
 Au         0.0001001182       -0.0004098694       22.0845796302
 Au         0.0001015399        4.1480568608       22.0845877025
 Au         2.0678182302        2.0738206173       22.0833830959
 Au         2.0747532791        6.2214793087       22.0846061495
 Au         4.1503314565       -0.0077703592       22.0841655256
 Au         4.1503330469        4.1555348345       22.0842488206
 Au         6.2329921756        2.0738208819       22.0835255706
 Au         6.2254405461        6.2214819565       22.0848945963
 Au         0.0001157984        2.0738278772       24.1577908427
 Au         0.0001171805        6.2214820254       24.1577908427
 Au         2.0752261882        0.0000008031       24.1577908427
 Au         2.0752275703        4.1476549513       24.1577908427
 Au         4.1503379601        2.0738278772       24.1577908427
 Au         4.1503393422        6.2214820254       24.1577908427
 Au         6.2254483499        0.0000008031       24.1577908427
 Au         6.2254497320        4.1476549513       24.1577908427
 Au         0.0001249844        0.0000008720       26.2306870891
 Au         0.0001263664        4.1476550202       26.2306870891
 Au         2.0752367562        2.0738279461       26.2306870891
 Au         2.0752381383        6.2214820943       26.2306870891
 Au         4.1503471461        0.0000008720       26.2306870891
 Au         4.1503485281        4.1476550202       26.2306870891
 Au         6.2254589179        2.0738279461       26.2306870891
 Au         6.2254603000        6.2214820943       26.2306870891
 Au         0.0001355524        2.0738280150       28.3035833355
 Au         0.0001369344        6.2214821632       28.3035833355
 Au         2.0752459422        0.0000009409       28.3035833355
 Au         2.0752473243        4.1476550891       28.3035833355
 Au         4.1503577141        2.0738280150       28.3035833355
 Au         4.1503590961        6.2214821632       28.3035833355
 Au         6.2254681039        0.0000009409       28.3035833355
 Au         6.2254694860        4.1476550891       28.3035833355
 Au         0.0001447383        0.0000010098       30.3764795819
 Au         0.0001461204        4.1476551580       30.3764795819
 Au         2.0752565102        2.0738280839       30.3764795819
 Au         2.0752578923        6.2214822321       30.3764795819
 Au         4.1503669000        0.0000010098       30.3764795819
 Au         4.1503682821        4.1476551580       30.3764795819
 Au         6.2254786719        2.0738280839       30.3764795819
 Au         6.2254800540        6.2214822321       30.3764795819
 Au         0.0001553063        2.0738281528       32.4493758283
 Au         0.0001566884        6.2214823010       32.4493758283
 Au         2.0752656961        0.0000010787       32.4493758283
 Au         2.0752670782        4.1476552269       32.4493758283
 Au         4.1503774680        2.0738281528       32.4493758283
 Au         4.1503788501        6.2214823010       32.4493758283
 Au         6.2254878578        0.0000010787       32.4493758283
 Au         6.2254892399        4.1476552269       32.4493758283
     116
 i =        2, E =     -3518.3279254670
 Au         0.0000000000        0.0000000000        0.0000000000
 Au         0.0000007868        4.1477395230        0.0000000000
 Au         2.0750769972        2.0738697615        0.0000000000
 Au         2.0750777840        6.2216092845        0.0000000000
 Au         4.1501532076        0.0000000000        0.0000000000
 Au         4.1501539944        4.1477395230        0.0000000000
 Au         6.2252302048        2.0738697615        0.0000000000
 Au         6.2252309916        6.2216092845        0.0000000000
 Au         0.0000136470        2.0738700312        2.0727924840
 Au         0.0000144339        6.2216095541        2.0727924840
 Au         2.0750898574        0.0000002697        2.0727924840
 Au         2.0750906442        4.1477397927        2.0727924840
 Au         4.1501668546        2.0738700312        2.0727924840
 Au         4.1501676414        6.2216095541        2.0727924840
 Au         6.2252430650        0.0000002697        2.0727924840
 Au         6.2252438518        4.1477397927        2.0727924840
 Au         0.0000265072        0.0000005394        4.1455849679
 Au         0.0000272940        4.1477400623        4.1455849679
 Au         2.0751035044        2.0738703009        4.1455849679
 Au         2.0751042913        6.2216098238        4.1455849679
 Au         4.1501797148        0.0000005394        4.1455849679
 Au         4.1501805016        4.1477400623        4.1455849679
 Au         6.2252567120        2.0738703009        4.1455849679
 Au         6.2252574988        6.2216098238        4.1455849679
 Au         0.0000401542        2.0738705705        6.2183774519
 Au         0.0000409411        6.2216100935        6.2183774519
 Au         2.0751163646        0.0000008091        6.2183774519
 Au         2.0751171514        4.1477403320        6.2183774519
 Au         4.1501933618        2.0738705705        6.2183774519
 Au         4.1501941487        6.2216100935        6.2183774519
 Au         6.2252695722        0.0000008091        6.2183774519
 Au         6.2252703590        4.1477403320        6.2183774519
 Au         0.0000530144        0.0000010787        8.2911699358
 Au         0.0000538013        4.1477406017        8.2911699358
 Au         2.0751300116        2.0738708402        8.2911699358
 Au         2.0751307985        6.2216103632        8.2911699358
 Au         4.1502062220        0.0000010787        8.2911699358
 Au         4.1502070088        4.1477406017        8.2911699358
 Au         6.2252832192        2.0738708402        8.2911699358
 Au         6.2252840060        6.2216103632        8.2911699358
 Au         0.0000630274        2.0738722329       10.3670948508
 Au         0.0000655336        6.2216009877       10.3625117507
 Au         2.0750746807        0.0001600938       10.3624199635
 Au         2.0750709933        4.1475980005       10.3624035219
 Au         4.1502195779        2.0738553137       10.3552635200
 Au         4.1502178917        6.2215803707       10.3668456549
 Au         6.2253663328        0.0001611111       10.3624189471
 Au         6.2253717224        4.1475970141       10.3624022452
 Au         0.0000824551       -0.0009577060       12.4372783926
 Au         0.0000833936        4.1487160296       12.4372936952
 Au         2.0610472139        2.0738883860       12.4395561747
 Au         2.0740709968        6.2216094406       12.4372459898
 Au         4.1502309142       -0.0148965879       12.4379638717
 Au         4.1502320357        4.1624620448       12.4381063585
 Au         6.2393873636        2.0738887367       12.4395856175
 Au         6.2263973537        6.2216096071       12.4372479944
  S         4.1503319365        2.0744410026       14.0926388259
  C         4.1495314647        2.0800161826       15.8544319955
  H         2.0250067902        2.1032714600       16.0190073560
  H         6.2751010167        2.1032693281       16.0253437662
  C         2.9608743001        2.0820270895       16.5706504226
  C         5.3362793086        2.0820412857       16.5731360320
  C         2.9533457428        2.0637160700       17.9481888860
  C         5.3286991290        2.0637240716       17.9502647239
  H         2.0142028290        2.0424756888       18.4954238975
  H         6.2646699831        2.0424736839       18.5017106756
  C         4.1404046578        2.0658377791       18.6667568324
  S         4.1493797576        2.0732303707       20.4285918061
 Au         0.0001307880       -0.0009343418       22.0832443650
 Au         0.0001315907        4.1486622178       22.0832608945
 Au         2.0611307785        2.0738623621       22.0808185104
 Au         2.0741635892        6.2216067695       22.0832850431
 Au         4.1503034429       -0.0148144951       22.0823834941
 Au         4.1503045923        4.1627654007       22.0825500472
 Au         6.2397052160        2.0738627734       22.0810585611
 Au         6.2253721972        6.2216121577       22.0837890982
 Au         0.0001548526        2.0738729044       24.1565815821
 Au         0.0001556394        6.2216124274       24.1565815821
 Au         2.0752310630        0.0000031429       24.1565815821
 Au         2.0752318498        4.1477426659       24.1565815821
 Au         4.1503080602        2.0738729044       24.1565815821
 Au         4.1503088470        6.2216124274       24.1565815821
 Au         6.2253842706        0.0000031429       24.1565815821
 Au         6.2253850574        4.1477426659       24.1565815821
 Au         0.0001677128        0.0000034126       26.2293740661
 Au         0.0001684996        4.1477429356       26.2293740661
 Au         2.0752447100        2.0738731741       26.2293740661
 Au         2.0752454968        6.2216126971       26.2293740661
 Au         4.1503209204        0.0000034126       26.2293740661
 Au         4.1503217072        4.1477429356       26.2293740661
 Au         6.2253979176        2.0738731741       26.2293740661
 Au         6.2253987044        6.2216126971       26.2293740661
 Au         0.0001813598        2.0738734438       28.3021665501
 Au         0.0001821467        6.2216129668       28.3021665501
 Au         2.0752575702        0.0000036823       28.3021665501
 Au         2.0752583570        4.1477432053       28.3021665501
 Au         4.1503345674        2.0738734438       28.3021665501
 Au         4.1503353542        6.2216129668       28.3021665501
 Au         6.2254107778        0.0000036823       28.3021665501
 Au         6.2254115646        4.1477432053       28.3021665501
 Au         0.0001942200        0.0000039520       30.3749590340
 Au         0.0001950069        4.1477434750       30.3749590340
 Au         2.0752712172        2.0738737135       30.3749590340
 Au         2.0752720041        6.2216132365       30.3749590340
 Au         4.1503474276        0.0000039520       30.3749590340
 Au         4.1503482144        4.1477434750       30.3749590340
 Au         6.2254244248        2.0738737135       30.3749590340
 Au         6.2254252116        6.2216132365       30.3749590340
 Au         0.0002078670        2.0738739832       32.4477515180
 Au         0.0002086539        6.2216135061       32.4477515180
 Au         2.0752840774        0.0000042217       32.4477515180
 Au         2.0752848643        4.1477437447       32.4477515180
 Au         4.1503610746        2.0738739832       32.4477515180
 Au         4.1503618615        6.2216135061       32.4477515180
 Au         6.2254372850        0.0000042217       32.4477515180
 Au         6.2254380718        4.1477437447       32.4477515180
     116
 i =        3, E =     -3518.3333948963
 Au         0.0000000000        0.0000000000        0.0000000000
 Au        -0.0000066451        4.1475517385        0.0000000000
 Au         2.0743843891        2.0737758692        0.0000000000
 Au         2.0743777439        6.2213276077        0.0000000000
 Au         4.1487754233        0.0000000000        0.0000000000
 Au         4.1487687781        4.1475517385        0.0000000000
 Au         6.2231598123        2.0737758692        0.0000000000
 Au         6.2231531672        6.2213276077        0.0000000000
 Au         0.0000285394        2.0737785929        2.0721446905
 Au         0.0000218943        6.2213303314        2.0721446905
 Au         2.0744195736        0.0000027237        2.0721446905
 Au         2.0744129285        4.1475544622        2.0721446905
 Au         4.1488039627        2.0737785929        2.0721446905
 Au         4.1487973176        6.2213303314        2.0721446905
 Au         6.2231949969        0.0000027237        2.0721446905
 Au         6.2231883518        4.1475544622        2.0721446905
 Au         0.0000637240        0.0000054474        4.1442893810
 Au         0.0000570788        4.1475571859        4.1442893810
 Au         2.0744481131        2.0737813167        4.1442893810
 Au         2.0744414679        6.2213330551        4.1442893810
 Au         4.1488391473        0.0000054474        4.1442893810
 Au         4.1488325021        4.1475571859        4.1442893810
 Au         6.2232235363        2.0737813167        4.1442893810
 Au         6.2232168912        6.2213330551        4.1442893810
 Au         0.0000922634        2.0737840404        6.2164340715
 Au         0.0000856183        6.2213357788        6.2164340715
 Au         2.0744832976        0.0000081712        6.2164340715
 Au         2.0744766525        4.1475599096        6.2164340715
 Au         4.1488676867        2.0737840404        6.2164340715
 Au         4.1488610415        6.2213357788        6.2164340715
 Au         6.2232587209        0.0000081712        6.2164340715
 Au         6.2232520758        4.1475599096        6.2164340715
 Au         0.0001274480        0.0000108949        8.2885787619
 Au         0.0001208028        4.1475626333        8.2885787619
 Au         2.0745118370        2.0737867641        8.2885787619
 Au         2.0745051919        6.2213385026        8.2885787619
 Au         4.1489028713        0.0000108949        8.2885787619
 Au         4.1488962261        4.1475626333        8.2885787619
 Au         6.2232872603        2.0737867641        8.2885787619
 Au         6.2232806152        6.2213385026        8.2885787619
 Au         0.0001604629        2.0737958446       10.3712524275
 Au         0.0001460692        6.2213083165       10.3556536064
 Au         2.0745466201        0.0009426349       10.3553951114
 Au         2.0745317173        4.1466973875       10.3553340589
 Au         4.1489400316        2.0737273990       10.3324960171
 Au         4.1489156748        6.2211992100       10.3701590354
 Au         6.2233204280        0.0009481471       10.3554028240
 Au         6.2233225041        4.1466920121       10.3553410133
 Au         0.0001973962       -0.0047127541       12.4347415241
 Au         0.0001912161        4.1523587494       12.4348007853
 Au         2.0255533235        2.0738336469       12.4436064137
 Au         2.0692904611        6.2213411540       12.4346281796
 Au         4.1489585928       -0.0520938405       12.4373992559
 Au         4.1489527004        4.1990414983       12.4379577879
 Au         6.2723782331        2.0738345451       12.4436109217
 Au         6.2286188248        6.2213416477       12.4346366676
  S         4.1490494018        2.0761061304       14.1012557675
  C         4.1460256722        2.0846833511       15.8591171326
  H         2.0063548025        2.1002695283       16.0091154890
  H         6.2910956514        2.1002439660       16.0168763142
  C         2.9430816669        2.0796485779       16.5563458122
  C         5.3475273150        2.0796832803       16.5605046106
  C         2.9398773146        2.0659724462       17.9497939788
  C         5.3445820569        2.0659719211       17.9534165012
  H         1.9957430864        2.0453675446       18.4933901010
  H         6.2808892478        2.0453416957       18.5009207422
  C         4.1419575718        2.0613022833       18.6516704012
  S         4.1460802344        2.0712278482       20.4083972193
 Au         0.0002846258       -0.0043808071       22.0748841844
 Au         0.0002776848        4.1519197246       22.0749473713
 Au         2.0250846204        2.0737934793       22.0653570133
 Au         2.0697894191        6.2213352250       22.0749868374
 Au         4.1491424889       -0.0522939999       22.0712766850
 Au         4.1491370242        4.2006176672       22.0719198921
 Au         6.2738261535        2.0737947984       22.0661131988
 Au         6.2234926289        6.2213566265       22.0768874260
 Au         0.0003680011        2.0738076118       24.1490321165
 Au         0.0003613560        6.2213593503       24.1490321165
 Au         2.0747590353        0.0000317426       24.1490321165
 Au         2.0747523902        4.1475834810       24.1490321165
 Au         4.1491434244        2.0738076118       24.1490321165
 Au         4.1491367792        6.2213593503       24.1490321165
 Au         6.2235344586        0.0000317426       24.1490321165
 Au         6.2235278134        4.1475834810       24.1490321165
 Au         0.0004031857        0.0000344663       26.2211768070
 Au         0.0003965405        4.1475862047       26.2211768070
 Au         2.0747875747        2.0738103355       26.2211768070
 Au         2.0747809296        6.2213620740       26.2211768070
 Au         4.1491786089        0.0000344663       26.2211768070
 Au         4.1491719638        4.1475862047       26.2211768070
 Au         6.2235629980        2.0738103355       26.2211768070
 Au         6.2235563529        6.2213620740       26.2211768070
 Au         0.0004317251        2.0738130592       28.2933214974
 Au         0.0004250799        6.2213647977       28.2933214974
 Au         2.0748227593        0.0000371900       28.2933214974
 Au         2.0748161142        4.1475889285       28.2933214974
 Au         4.1492071484        2.0738130592       28.2933214974
 Au         4.1492005032        6.2213647977       28.2933214974
 Au         6.2235981826        0.0000371900       28.2933214974
 Au         6.2235915374        4.1475889285       28.2933214974
 Au         0.0004669097        0.0000399137       30.3654661879
 Au         0.0004602645        4.1475916522       30.3654661879
 Au         2.0748512987        2.0738157829       30.3654661879
 Au         2.0748446536        6.2213675214       30.3654661879
 Au         4.1492423329        0.0000399137       30.3654661879
 Au         4.1492356878        4.1475916522       30.3654661879
 Au         6.2236267220        2.0738157829       30.3654661879
 Au         6.2236200769        6.2213675214       30.3654661879
 Au         0.0004954491        2.0738185067       32.4376108784
 Au         0.0004888039        6.2213702451       32.4376108784
 Au         2.0748864833        0.0000426374       32.4376108784
 Au         2.0748798381        4.1475943759       32.4376108784
 Au         4.1492708724        2.0738185067       32.4376108784
 Au         4.1492642272        6.2213702451       32.4376108784
 Au         6.2236619066        0.0000426374       32.4376108784
 Au         6.2236552614        4.1475943759       32.4376108784
     116
 i =        4, E =     -3518.3347072710
 Au         0.0000000000        0.0000000000        0.0000000000
 Au        -0.0000134642        4.1475249601        0.0000000000
 Au         2.0729999986        2.0737624800        0.0000000000
 Au         2.0729865343        6.2212874401        0.0000000000
 Au         4.1460134614        0.0000000000        0.0000000000
 Au         4.1459999972        4.1475249601        0.0000000000
 Au         6.2190134600        2.0737624800        0.0000000000
 Au         6.2189999958        6.2212874401        0.0000000000
 Au         0.0000343710        2.0737675687        2.0717298976
 Au         0.0000209068        6.2212925288        2.0717298976
 Au         2.0730478339        0.0000050887        2.0717298976
 Au         2.0730343696        4.1475300487        2.0717298976
 Au         4.1460478325        2.0737675687        2.0717298976
 Au         4.1460343682        6.2212925288        2.0717298976
 Au         6.2190612953        0.0000050887        2.0717298976
 Au         6.2190478310        4.1475300487        2.0717298976
 Au         0.0000822063        0.0000101773        4.1434597952
 Au         0.0000687421        4.1475351374        4.1434597952
 Au         2.0730822049        2.0737726574        4.1434597952
 Au         2.0730687407        6.2212976174        4.1434597952
 Au         4.1460956678        0.0000101773        4.1434597952
 Au         4.1460822035        4.1475351374        4.1434597952
 Au         6.2190956663        2.0737726574        4.1434597952
 Au         6.2190822021        6.2212976174        4.1434597952
 Au         0.0001165774        2.0737777461        6.2151896928
 Au         0.0001031131        6.2213027061        6.2151896928
 Au         2.0731300402        0.0000152660        6.2151896928
 Au         2.0731165760        4.1475402261        6.2151896928
 Au         4.1461300388        2.0737777461        6.2151896928
 Au         4.1461165745        6.2213027061        6.2151896928
 Au         6.2191435016        0.0000152660        6.2151896928
 Au         6.2191300374        4.1475402261        6.2151896928
 Au         0.0001644127        0.0000203547        8.2869195904
 Au         0.0001509484        4.1475453148        8.2869195904
 Au         2.0731644112        2.0737828347        8.2869195904
 Au         2.0731509470        6.2213077948        8.2869195904
 Au         4.1461778741        0.0000203547        8.2869195904
 Au         4.1461644098        4.1475453148        8.2869195904
 Au         6.2191778727        2.0737828347        8.2869195904
 Au         6.2191644084        6.2213077948        8.2869195904
 Au         0.0002132737        2.0737998675       10.3722758264
 Au         0.0001818121        6.2212690073       10.3517840106
 Au         2.0735078505        0.0017130808       10.3516155501
 Au         2.0734906107        4.1459492861       10.3515308328
 Au         4.1462269583        2.0736978492       10.3227192002
 Au         4.1461867212        6.2210768937       10.3704640670
 Au         6.2189239439        0.0017203990       10.3516302698
 Au         6.2189149418        4.1459421992       10.3515445307
 Au         0.0002544684       -0.0079946568       12.4333307811
 Au         0.0002416844        4.1556734437       12.4334141302
 Au         2.0071134093        2.0738292307       12.4462598524
 Au         2.0643376381        6.2213162592       12.4331582405
 Au         4.1462498913       -0.0705481793       12.4372939625
 Au         4.1462370856        4.2172595493       12.4381173847
 Au         6.2854420359        2.0738303024       12.4462320011
 Au         6.2281325055        6.2213170038       12.4331713180
  S         4.1462903184        2.0772611511       14.1013556809
  C         4.1427831661        2.0866055740       15.8602111508
  H         1.9954302335        2.0984651684       16.0028336118
  H         6.2950662428        2.0984068242       16.0118686004
  C         2.9337288713        2.0790509880       16.5547396791
  C         5.3508024614        2.0791144228       16.5586307897
  C         2.9314378523        2.0665951633       17.9447468204
  C         5.3486896344        2.0666161939       17.9481325577
  H         1.9865786007        2.0472269446       18.4915321941
  H         6.2865567456        2.0471621367       18.5003524484
  C         4.1399133639        2.0595248506       18.6434105770
  S         4.1423083924        2.0699861367       20.4009508516
 Au         0.0003246123       -0.0072979269       22.0692729623
 Au         0.0003104738        4.1548227828       22.0693613768
 Au         2.0059083211        2.0738276533       22.0553182150
 Au         2.0652477898        6.2213108617       22.0693674364
 Au         4.1464483864       -0.0712193485       22.0637408656
 Au         4.1464362221        4.2198124287       22.0646776724
 Au         6.2878209751        2.0738293633       22.0563356071
 Au         6.2194379140        6.2213416555       22.0724681710
 Au         0.0004722893        2.0738217841       24.1441980686
 Au         0.0004588250        6.2213467441       24.1441980686
 Au         2.0734857521        0.0000593040       24.1441980686
 Au         2.0734722879        4.1475842641       24.1441980686
 Au         4.1464857507        2.0738217841       24.1441980686
 Au         4.1464722864        6.2213467441       24.1441980686
 Au         6.2194992135        0.0000593040       24.1441980686
 Au         6.2194857493        4.1475842641       24.1441980686
 Au         0.0005201246        0.0000643927       26.2159279663
 Au         0.0005066603        4.1475893528       26.2159279663
 Au         2.0735201231        2.0738268727       26.2159279663
 Au         2.0735066589        6.2213518328       26.2159279663
 Au         4.1465335860        0.0000643927       26.2159279663
 Au         4.1465201217        4.1475893528       26.2159279663
 Au         6.2195335846        2.0738268727       26.2159279663
 Au         6.2195201203        6.2213518328       26.2159279663
 Au         0.0005544956        2.0738319614       28.2876578639
 Au         0.0005410313        6.2213569215       28.2876578639
 Au         2.0735679584        0.0000694814       28.2876578639
 Au         2.0735544942        4.1475944414       28.2876578639
 Au         4.1465679570        2.0738319614       28.2876578639
 Au         4.1465544928        6.2213569215       28.2876578639
 Au         6.2195814199        0.0000694814       28.2876578639
 Au         6.2195679556        4.1475944414       28.2876578639
 Au         0.0006023309        0.0000745700       30.3593877615
 Au         0.0005888666        4.1475995301       30.3593877615
 Au         2.0736023295        2.0738370501       30.3593877615
 Au         2.0735888652        6.2213620101       30.3593877615
 Au         4.1466157923        0.0000745700       30.3593877615
 Au         4.1466023281        4.1475995301       30.3593877615
 Au         6.2196157909        2.0738370501       30.3593877615
 Au         6.2196023266        6.2213620101       30.3593877615
 Au         0.0006367019        2.0738421388       32.4311176591
 Au         0.0006232377        6.2213670988       32.4311176591