ATOMS
Au            1.78720903      1.28067091      0.00000000             0.00000000      0.00000000      0.00000000
Au            0.30935586      2.75852409      2.09000000             0.00000000      0.00000000      0.00000000
Au            1.78720903      1.28067091      4.18000000             0.00000000      0.00000000      0.00000000
Au            0.30935586      2.75852409      6.27000000             0.00000000      0.00000000      0.00000000
Au            4.74291537      1.28067091      0.00000000             0.00000000      0.00000000      0.00000000
Au            3.26506220      2.75852409      2.09000000             0.00000000      0.00000000      0.00000000
Au            4.74291537      1.28067091      4.18000000             0.00000000      0.00000000      0.00000000
Au            3.26506220      2.75852409      6.27000000             0.00000000      0.00000000      0.00000000
Au            7.69862172      1.28067091      0.00000000             0.00000000      0.00000000      0.00000000
Au            6.22076855      2.75852409      2.09000000             0.00000000      0.00000000      0.00000000
Au            7.69862172      1.28067091      4.18000000             0.00000000      0.00000000      0.00000000
Au            6.22076855      2.75852409      6.27000000             0.00000000      0.00000000      0.00000000
Au            1.78720903      4.23637726      0.00000000             0.00000000      0.00000000      0.00000000
Au            0.30935586      5.71423043      2.09000000             0.00000000      0.00000000      0.00000000
Au            1.78720903      4.23637726      4.18000000             0.00000000      0.00000000      0.00000000
Au            0.30935586      5.71423043      6.27000000             0.00000000      0.00000000      0.00000000
Au            4.74291537      4.23637726      0.00000000             0.00000000      0.00000000      0.00000000
Au            3.26506220      5.71423043      2.09000000             0.00000000      0.00000000      0.00000000
Au            4.74291537      4.23637726      4.18000000             0.00000000      0.00000000      0.00000000
Au            3.26506220      5.71423043      6.27000000             0.00000000      0.00000000      0.00000000
Au            7.69862172      4.23637726      0.00000000             0.00000000      0.00000000      0.00000000
Au            6.22076855      5.71423043      2.09000000             0.00000000      0.00000000      0.00000000
Au            7.69862172      4.23637726      4.18000000             0.00000000      0.00000000      0.00000000
Au            6.22076855      5.71423043      6.27000000             0.00000000      0.00000000      0.00000000
Au            1.78720903      7.19208360      0.00000000             0.00000000      0.00000000      0.00000000
Au            0.30935586      8.66993678      2.09000000             0.00000000      0.00000000      0.00000000
Au            1.78720903      7.19208360      4.18000000             0.00000000      0.00000000      0.00000000
Au            0.30935586      8.66993678      6.27000000             0.00000000      0.00000000      0.00000000
Au            4.74291537      7.19208360      0.00000000             0.00000000      0.00000000      0.00000000
Au            3.26506220      8.66993678      2.09000000             0.00000000      0.00000000      0.00000000
Au            4.74291537      7.19208360      4.18000000             0.00000000      0.00000000      0.00000000
Au            3.26506220      8.66993678      6.27000000             0.00000000      0.00000000      0.00000000
Au            7.69862172      7.19208360      0.00000000             0.00000000      0.00000000      0.00000000
Au            6.22076855      8.66993678      2.09000000             0.00000000      0.00000000      0.00000000
Au            7.69862172      7.19208360      4.18000000             0.00000000      0.00000000      0.00000000
Au            6.22076855      8.66993678      6.27000000             0.00000000      0.00000000      0.00000000
Au            1.78720903      1.28067091      8.36000000             0.00000000      0.00000000      0.00000000
Au            1.78720903      4.23637726      8.36000000             0.00000000      0.00000000      0.00000000
Au            1.78720903      7.19208360      8.36000000             0.00000000      0.00000000      0.00000000
Au            4.74291537      1.28067091      8.36000000             0.00000000      0.00000000      0.00000000
Au            4.74291537      4.23637726      8.36000000             0.00000000      0.00000000      0.00000000
Au            4.74291537      7.19208360      8.36000000             0.00000000      0.00000000      0.00000000
Au            7.69862172      1.28067091      8.36000000             0.00000000      0.00000000      0.00000000
Au            7.69862172      4.23637726      8.36000000             0.00000000      0.00000000      0.00000000
Au            7.69862172      7.19208360      8.36000000             0.00000000      0.00000000      0.00000000
Au            0.30935586      2.75852409     10.45000000             0.00000000      0.00000000      0.00000000
Au            0.30935586      5.71423043     10.45000000             0.00000000      0.00000000      0.00000000
Au            0.30935586      8.66993678     10.45000000             0.00000000      0.00000000      0.00000000
Au            3.26506220      2.75852409     10.45000000             0.00000000      0.00000000      0.00000000
Au            3.26506220      5.71423043     10.45000000             0.00000000      0.00000000      0.00000000
Au            3.26506220      8.66993678     10.45000000             0.00000000      0.00000000      0.00000000
Au            6.22076855      2.75852409     10.45000000             0.00000000      0.00000000      0.00000000
Au            6.22076855      5.71423043     10.45000000             0.00000000      0.00000000      0.00000000
Au            6.22076855      8.66993678     10.45000000             0.00000000      0.00000000      0.00000000
Au            1.73987629      4.19104059     12.43175084             0.00000000      0.00000000      0.00000000
Au            1.73961151      7.24133437     12.43560670             0.00000000      0.00000000      0.00000000
Au            4.78979518      4.19130231     12.43162613             0.00000000      0.00000000      0.00000000
Au            4.79016778      7.24129522     12.43576696             0.00000000      0.00000000      0.00000000
Au            3.26450496      5.71204887     14.29328227             0.00598045     -0.00813437     -0.06552578
Au            3.26553062      5.75422311     16.98743142            -0.00776454      0.00613198     -0.10515309
H             3.25259153      5.72300083     18.85909087             0.21229880     -0.22283407     -0.12813957
H             3.25171374      5.72364563     19.73860248             0.22715585     -0.23567567     -0.11946178
Au            3.24605002      5.71930356     21.61494371             0.06585777     -0.06807728     -0.14144122
Au            3.25913422      5.72051918     24.26652567            -0.58479296      0.60929744     -0.09841922
Au            1.77950964      4.22902001     26.26859248             0.00000000      0.00000000      0.00000000
Au            1.77950421      7.19955971     26.26866995             0.00000000      0.00000000      0.00000000
Au            4.74906948      4.22982523     26.26820670             0.00000000      0.00000000      0.00000000
Au            4.74884215      7.19828986     26.26800549             0.00000000      0.00000000      0.00000000
Au            0.30935586      2.75852409     28.27000000             0.00000000      0.00000000      0.00000000
Au            0.30935586      5.71423043     28.27000000             0.00000000      0.00000000      0.00000000
Au            0.30935586      8.66993678     28.27000000             0.00000000      0.00000000      0.00000000
Au            3.26506220      2.75852409     28.27000000             0.00000000      0.00000000      0.00000000
Au            3.26506220      5.71423043     28.27000000             0.00000000      0.00000000      0.00000000
Au            3.26506220      8.66993678     28.27000000             0.00000000      0.00000000      0.00000000
Au            6.22076855      2.75852409     28.27000000             0.00000000      0.00000000      0.00000000
Au            6.22076855      5.71423043     28.27000000             0.00000000      0.00000000      0.00000000
Au            6.22076855      8.66993678     28.27000000             0.00000000      0.00000000      0.00000000
Au            1.78720903      1.28067091     30.36000000             0.00000000      0.00000000      0.00000000
Au            0.30935586      2.75852409     32.45000000             0.00000000      0.00000000      0.00000000
Au            1.78720903      1.28067091     34.54000000             0.00000000      0.00000000      0.00000000
Au            0.30935586      2.75852409     36.63000000             0.00000000      0.00000000      0.00000000
Au            4.74291537      1.28067091     30.36000000             0.00000000      0.00000000      0.00000000
Au            3.26506220      2.75852409     32.45000000             0.00000000      0.00000000      0.00000000
Au            4.74291537      1.28067091     34.54000000             0.00000000      0.00000000      0.00000000
Au            3.26506220      2.75852409     36.63000000             0.00000000      0.00000000      0.00000000
Au            7.69862172      1.28067091     30.36000000             0.00000000      0.00000000      0.00000000
Au            6.22076855      2.75852409     32.45000000             0.00000000      0.00000000      0.00000000
Au            7.69862172      1.28067091     34.54000000             0.00000000      0.00000000      0.00000000
Au            6.22076855      2.75852409     36.63000000             0.00000000      0.00000000      0.00000000
Au            1.78720903      4.23637726     30.36000000             0.00000000      0.00000000      0.00000000
Au            0.30935586      5.71423043     32.45000000             0.00000000      0.00000000      0.00000000
Au            1.78720903      4.23637726     34.54000000             0.00000000      0.00000000      0.00000000
Au            0.30935586      5.71423043     36.63000000             0.00000000      0.00000000      0.00000000
Au            4.74291537      4.23637726     30.36000000             0.00000000      0.00000000      0.00000000
Au            3.26506220      5.71423043     32.45000000             0.00000000      0.00000000      0.00000000
Au            4.74291537      4.23637726     34.54000000             0.00000000      0.00000000      0.00000000
Au            3.26506220      5.71423043     36.63000000             0.00000000      0.00000000      0.00000000
Au            7.69862172      4.23637726     30.36000000             0.00000000      0.00000000      0.00000000
Au            6.22076855      5.71423043     32.45000000             0.00000000      0.00000000      0.00000000
Au            7.69862172      4.23637726     34.54000000             0.00000000      0.00000000      0.00000000
Au            6.22076855      5.71423043     36.63000000             0.00000000      0.00000000      0.00000000
Au            1.78720903      7.19208360     30.36000000             0.00000000      0.00000000      0.00000000
Au            0.30935586      8.66993678     32.45000000             0.00000000      0.00000000      0.00000000
Au            1.78720903      7.19208360     34.54000000             0.00000000      0.00000000      0.00000000
Au            0.30935586      8.66993678     36.63000000             0.00000000      0.00000000      0.00000000
Au            4.74291537      7.19208360     30.36000000             0.00000000      0.00000000      0.00000000
Au            3.26506220      8.66993678     32.45000000             0.00000000      0.00000000      0.00000000
Au            4.74291537      7.19208360     34.54000000             0.00000000      0.00000000      0.00000000
Au            3.26506220      8.66993678     36.63000000             0.00000000      0.00000000      0.00000000
Au            7.69862172      7.19208360     30.36000000             0.00000000      0.00000000      0.00000000
Au            6.22076855      8.66993678     32.45000000             0.00000000      0.00000000      0.00000000
Au            7.69862172      7.19208360     34.54000000             0.00000000      0.00000000      0.00000000
Au            6.22076855      8.66993678     36.63000000             0.00000000      0.00000000      0.00000000
