#     Step Nr.          Time[fs]        Kin.[a.u.]          Temp[K]            Pot.[a.u.]        Cons Qty[a.u.]        UsedTime[s]
         0            0.000000         0.701255147       226.073095523     -9247.395991327     -9239.091736610         0.000000000
        10            5.000000         0.913876112       294.618588540     -9247.409001029     -9238.887407315       239.978530169
        20           10.000000         0.930568689       300.000000000     -9247.556695885     -9238.963386887        80.785853863
        30           15.000000         0.910858704       293.645825913     -9247.565772024     -9239.013793475        92.000768900
        40           20.000000         0.946906338       305.266988609     -9247.599589362     -9239.014228881        77.211833000
        50           25.000000         0.927148441       298.897368586     -9247.596013343     -9239.052255995        81.297212839
        60           30.000000         0.942754251       303.928424330     -9247.635534948     -9239.052509807        71.405051947
        70           35.000000         0.909315596       293.148353339     -9247.668524801     -9239.089104330        70.709147930
        80           40.000000         0.936794305       302.007035920     -9247.715657403     -9239.121569511        84.093401909
        90           45.000000         0.923158777       297.611166819     -9247.739390519     -9239.121217806        69.998152018
       100           50.000000         0.957933761       308.822047974     -9247.786469101     -9239.152733593        70.882507086
       110           55.000000         0.919464363       296.420148449     -9247.840395428     -9239.227766651        66.113941908
       120           60.000000         0.943250449       304.088390472     -9247.864397204     -9239.269962637        69.470263958
       130           65.000000         0.943445590       304.151300752     -9247.919806465     -9239.311190158        74.785881042
       140           70.000000         0.942504598       303.847940294     -9247.947042270     -9239.310789350        70.514117956
       150           75.000000         0.954968520       307.866103350     -9247.984414386     -9239.344992519        74.802331924
       160           80.000000         0.930568689       300.000000000     -9247.962112453     -9239.343511343        69.497624874
       170           85.000000         0.930568689       300.000000000     -9247.939907249     -9239.314241321        68.590141058
       180           90.000000         0.914032008       294.668846792     -9247.924729934     -9239.314243101        70.693429947
       190           95.000000         0.938042746       302.409512795     -9247.923247736     -9239.313655064        69.775553942
       200          100.000000         0.903140364       291.157560554     -9247.948445108     -9239.352191012        66.653856993
       210          105.000000         0.922960513       297.547249665     -9247.924075463     -9239.258919821        65.993891954
       220          110.000000         0.913396885       294.464093586     -9247.942694140     -9239.258911879        66.897005796
       230          115.000000         0.908839489       292.994864277     -9247.920714706     -9239.227184966        66.476788998
       240          120.000000         0.932593950       300.652910781     -9247.902358049     -9239.185182785        72.832831860
       250          125.000000         0.907598768       292.594876301     -9247.874726122     -9239.184834592        72.120768785
       260          130.000000         0.930568689       300.000000000     -9247.885994499     -9239.176998404        72.261334896
       270          135.000000         0.914653555       294.869223388     -9247.892403991     -9239.176815477        66.253053904
       280          140.000000         0.917685084       295.846538280     -9247.871508798     -9239.143029436        70.990499973
       290          145.000000         0.928358967       299.287622158     -9247.871605324     -9239.143139597        66.241450071
       300          150.000000         0.914887897       294.944771365     -9247.810297508     -9239.061963056        65.853523970
       310          155.000000         0.918789409       296.202554545     -9247.816415249     -9239.065477884        70.297158003
       320          160.000000         0.913103755       294.369593529     -9247.794114375     -9239.064960176        68.517398119
       330          165.000000         0.926319376       298.630091609     -9247.831886606     -9239.109919931        69.910555124
       340          170.000000         0.904446822       291.578740973     -9247.833030044     -9239.065048389        68.256612062
       350          175.000000         0.939823821       302.983702086     -9247.853652641     -9239.028698198        70.359563828
       360          180.000000         0.911001674       293.691917198     -9247.839574514     -9239.028393978        69.284368038
       370          185.000000         0.937317148       302.175591903     -9247.857395197     -9239.028476640        68.440904856
       380          190.000000         0.915848122       295.254332018     -9247.843643412     -9239.028138637        68.878475904
       390          195.000000         0.949908031       306.234685094     -9247.848731279     -9239.066247536        73.478497028
       400          200.000000         0.915189199       295.041906249     -9247.849003225     -9239.066301131        81.991714001
       410          205.000000         0.919158337       296.321490862     -9247.857878314     -9239.100400245        73.144455910
       420          210.000000         0.936881379       302.035107168     -9247.806920511     -9239.100267148        79.807452917
       430          215.000000         0.925771469       298.453455558     -9247.837132800     -9239.133158308        93.176658154
       440          220.000000         0.922952960       297.544814753     -9247.827863807     -9239.133038060        93.635761976
       450          225.000000         0.906956678       292.387877092     -9247.853994860     -9239.133320452        96.302773952
       460          230.000000         0.915099391       295.012953397     -9247.825735868     -9239.096693862        90.136377096
       470          235.000000         0.933815512       301.046722200     -9247.868506348     -9239.129400618        77.875037909
       480          240.000000         0.945134565       304.695798328     -9247.847999496     -9239.129075773        67.899431944
       490          245.000000         0.952503199       307.071324596     -9247.887104383     -9239.203088162        84.975934982
       500          250.000000         0.916355094       295.417771340     -9247.896921013     -9239.202952913        78.386832952
       510          255.000000         0.935543833       301.603904486     -9247.894593841     -9239.160799995        88.535135031
       520          260.000000         0.930471466       299.968656936     -9247.881637652     -9239.208304959        69.780858994
       530          265.000000         0.931146221       300.186187058     -9247.876160770     -9239.208050444        70.487598181
       540          270.000000         0.935394799       301.555858523     -9247.861825569     -9239.208341473        78.200911045
       550          275.000000         0.902887575       291.076065498     -9247.802931623     -9239.166740272        82.680430889
       560          280.000000         0.952110115       306.944600584     -9247.809093743     -9239.167148574        94.163249016
       570          285.000000         0.938188654       302.456551091     -9247.831495101     -9239.166993700        92.657219887
       580          290.000000         0.925030351       298.214531260     -9247.876596344     -9239.167329575        69.158102989
       590          295.000000         0.948748934       305.861011248     -9247.865736930     -9239.167052953        83.019767046
       600          300.000000         0.945656957       304.864208989     -9247.862023965     -9239.167258581        88.560790062
       610          305.000000         0.947597392       305.489773272     -9247.871707813     -9239.206659665       124.287420034
       620          310.000000         0.926520240       298.694846802     -9247.918984158     -9239.272915758        71.206372023
       630          315.000000         0.956837003       308.468471336     -9247.932760231     -9239.272764169        93.760431051
       640          320.000000         0.908984057       293.041470561     -9247.931144638     -9239.272936644        67.611593962
       650          325.000000         0.924272131       297.970093534     -9247.901477502     -9239.240668994        66.753597021
       660          330.000000         0.914086488       294.686410236     -9247.878692112     -9239.197868648        67.737355947
       670          335.000000         0.924237516       297.958934287     -9247.871034465     -9239.164016287        72.663300991
       680          340.000000         0.930669848       300.032612221     -9247.860350040     -9239.163758213        71.674341917
       690          345.000000         0.935883657       301.713458080     -9247.856686429     -9239.163717750        81.449025154
       700          350.000000         0.930568689       300.000000000     -9247.870080225     -9239.160367815        67.515266895
       710          355.000000         0.930568689       300.000000000     -9247.881374062     -9239.118227252        67.257989883
       720          360.000000         0.926740455       298.765840755     -9247.869268289     -9239.150042314        69.695173025
       730          365.000000         0.942592989       303.876436129     -9247.880709277     -9239.150296470       149.271430969
       740          370.000000         0.906995662       292.400444800     -9247.874330998     -9239.184900489       163.958692074
       750          375.000000         0.939142122       302.763933593     -9247.879245851     -9239.148174580        66.227700949
       760          380.000000         0.947536616       305.470180004     -9247.858496755     -9239.147955905        69.846968889
       770          385.000000         0.961185438       309.870335235     -9247.884551405     -9239.156029589        74.562042952
       780          390.000000         0.940298548       303.136746255     -9247.906887232     -9239.243437847        72.085646152
       790          395.000000         0.937539829       302.247380658     -9247.934524460     -9239.243513071        71.379570961
       800          400.000000         0.920687719       296.814538193     -9247.908756040     -9239.203577233        68.245764971
       810          405.000000         0.901700709       290.693439288     -9247.862121804     -9239.203400927        70.126143932
       820          410.000000         0.930568689       300.000000000     -9247.837014969     -9239.170005002        92.476061821
       830          415.000000         0.914094999       294.689154171     -9247.850136077     -9239.169908077        67.438462973
       840          420.000000         0.949730504       306.177453337     -9247.878265864     -9239.220342412        66.715356827
       850          425.000000         0.927992301       299.169415041     -9247.863886481     -9239.240669835        90.616485834
       860          430.000000         0.921822425       297.180348833     -9247.880704737     -9239.250713559        75.782828093
       870          435.000000         0.924061713       297.902258424     -9247.859569986     -9239.250581376        78.451234102
       880          440.000000         0.945785902       304.905778572     -9247.900229794     -9239.250951155        73.079856873
       890          445.000000         0.946298803       305.071129526     -9247.900069934     -9239.250977996        85.708485842
       900          450.000000         0.928052336       299.188769457     -9247.927047495     -9239.287621597        83.770177841
       910          455.000000         0.947193596       305.359595931     -9247.938788666     -9239.247539600        80.182510853
       920          460.000000         0.937298711       302.169648273     -9247.945412744     -9239.289556863        77.664287090
       930          465.000000         0.937744296       302.313297397     -9247.916480973     -9239.289344148        69.474478960
       940          470.000000         0.926934788       298.828490462     -9247.886085558     -9239.253324213        77.267351866
       950          475.000000         0.930568689       300.000000000     -9247.896165744     -9239.302954938        69.824762106
       960          480.000000         0.922008909       297.240468331     -9247.886115879     -9239.303108210        99.099594116
       970          485.000000         0.932837789       300.731520577     -9247.886331273     -9239.302928165        66.780713081
       980          490.000000         0.900784142       290.397953212     -9247.884255717     -9239.303104834        66.126234055
       990          495.000000         0.914661425       294.871760623     -9247.891314439     -9239.303158115        76.680740118
      1000          500.000000         0.902047986       290.805395626     -9247.880937927     -9239.302892700        80.636161089
      1010          505.000000         0.944615569       304.528482479     -9247.924305298     -9239.303134407        82.869349003
      1020          510.000000         0.926930612       298.827143990     -9247.915121278     -9239.303038808        68.142733812
      1030          515.000000         0.928631195       299.375383868     -9247.908657455     -9239.271657456        76.750496149
      1040          520.000000         0.944572945       304.514741430     -9247.873148192     -9239.235749227        72.760324001
      1050          525.000000         0.927096852       298.880737141     -9247.894763058     -9239.235854573        74.220044851
      1060          530.000000         0.945454220       304.798849769     -9247.915720734     -9239.269067729        67.723223925
      1070          535.000000         0.929012221       299.498220353     -9247.909139635     -9239.227839455        69.367268085
      1080          540.000000         0.911225197       293.763977209     -9247.934154321     -9239.259631198        69.237778902
      1090          545.000000         0.922495376       297.397297197     -9247.915633520     -9239.228277108        66.135471821
      1100          550.000000         0.937370803       302.192889449     -9247.927004479     -9239.266257352        72.558245897
      1110          555.000000         0.944093166       304.360068642     -9247.898079751     -9239.266247500        74.666833162
      1120          560.000000         0.954503998       307.716349204     -9247.953834347     -9239.316666627        66.036532164
      1130          565.000000         0.909925362       293.344931747     -9247.877487517     -9239.281494077        87.151718140
      1140          570.000000         0.934017586       301.111867630     -9247.922028963     -9239.285917483        66.118237972
      1150          575.000000         0.947142093       305.342992134     -9247.915980823     -9239.328704109        89.568681002
      1160          580.000000         0.943916905       304.303244698     -9247.988420881     -9239.368318038       138.824181080
      1170          585.000000         0.906567108       292.262286332     -9247.919919791     -9239.329147575        71.573045969
      1180          590.000000         0.937055353       302.091193551     -9247.908246321     -9239.294417756        83.329991817
      1190          595.000000         0.930568689       300.000000000     -9247.914190199     -9239.251844682        86.095133066
      1200          600.000000         0.910888325       293.655375181     -9247.935797237     -9239.245402068        66.869432926
      1210          605.000000         0.911972653       294.004944765     -9247.918155592     -9239.245430020        91.464282990
      1220          610.000000         0.919246943       296.350055847     -9247.928463223     -9239.245544411        71.869415998
      1230          615.000000         0.941432092       303.502182144     -9247.925436678     -9239.213511607        81.372282028
      1240          620.000000         0.929590913       299.684781332     -9247.917988036     -9239.176273330        69.529543877
      1250          625.000000         0.926363743       298.644395023     -9247.899382211     -9239.176241766       231.382164955
      1260          630.000000         0.945256362       304.735063657     -9247.913681820     -9239.212201282       161.517726183
      1270          635.000000         0.900643575       290.352636757     -9247.932535130     -9239.212096584       117.657155991
      1280          640.000000         0.909515579       293.212824732     -9247.938033330     -9239.212284879        88.512535095
      1290          645.000000         0.910372428       293.489058661     -9247.904925940     -9239.211944890        77.483853817
      1300          650.000000         0.933716372       301.014761127     -9247.915442123     -9239.212153539        92.193281889
      1310          655.000000         0.912517264       294.180518228     -9247.910100181     -9239.177539206        72.844681978
      1320          660.000000         0.932408252       300.593044968     -9247.895968474     -9239.146670348        66.331253052
      1330          665.000000         0.948536584       305.792553334     -9247.865332013     -9239.073429659        76.095841885
      1340          670.000000         0.959336934       309.274407884     -9247.920522967     -9239.073844472        71.628466845
      1350          675.000000         0.941854911       303.638492116     -9247.902307804     -9239.073924633        74.635034084
      1360          680.000000         0.927959170       299.158734215     -9247.893695693     -9239.112531383        74.119136095
      1370          685.000000         0.944532681       304.501760772     -9247.899948447     -9239.144992442        88.085366964
      1380          690.000000         0.950537090       306.437483447     -9247.894786026     -9239.144460911        68.495481968
      1390          695.000000         0.926496946       298.687337266     -9247.945053284     -9239.223152700        71.252511024
      1400          700.000000         0.926887576       298.813270068     -9247.931054675     -9239.221724724        80.024667025
      1410          705.000000         0.952075577       306.933466074     -9247.943996722     -9239.190180653        79.404647827
      1420          710.000000         0.928183752       299.231135781     -9247.902481542     -9239.189888111       132.330633163
      1430          715.000000         0.925628614       298.407401447     -9247.893953096     -9239.153780446        68.372266054
      1440          720.000000         0.909208713       293.113895993     -9247.860835918     -9239.120222449        76.209785938
      1450          725.000000         0.941989545       303.681895631     -9247.895740239     -9239.120472950        80.036652088
      1460          730.000000         0.930568689       300.000000000     -9247.884645958     -9239.044483788        76.731305838
      1470          735.000000         0.952938101       307.211529553     -9247.938255834     -9239.076737680        74.212625027
      1480          740.000000         0.946446204       305.118649073     -9247.917795564     -9239.077546736        76.124186993
      1490          745.000000         0.953030585       307.241345050     -9247.900591988     -9239.114863410        75.125815153
      1500          750.000000         0.955011024       307.879805832     -9247.898996522     -9239.151087956        71.121975899
      1510          755.000000         0.930568689       300.000000000     -9247.928795454     -9239.261998203        69.646476984
      1520          760.000000         0.914666690       294.873457730     -9247.921164316     -9239.262171091        66.410641909
      1530          765.000000         0.941982644       303.679671081     -9247.893765190     -9239.229860892        69.944445133
      1540          770.000000         0.927272502       298.937363666     -9247.891056524     -9239.261179204        70.420674801
      1550          775.000000         0.917048087       295.641181057     -9247.893353397     -9239.301179838        69.439785004
      1560          780.000000         0.921833116       297.183795518     -9247.901572099     -9239.301259263        70.423274040
      1570          785.000000         0.931905403       300.430934771     -9247.886133867     -9239.269604193        66.430075884
      1580          790.000000         0.934476925       301.259950963     -9247.910662929     -9239.269900179        66.565052986
      1590          795.000000         0.950193560       306.326734992     -9247.906407836     -9239.269918807        66.910391092
      1600          800.000000         0.945009189       304.655379350     -9247.959565269     -9239.308916002        63.005393028
      1610          805.000000         0.933998073       301.105576886     -9247.950447705     -9239.270143427        62.580404043
      1620          810.000000         0.949243256       306.020372561     -9247.969506673     -9239.270336459        71.177663088
      1630          815.000000         0.918357609       296.063349150     -9247.951987690     -9239.270043295        68.296245098
      1640          820.000000         0.932017316       300.467013664     -9247.958376378     -9239.311267580        66.800266027
      1650          825.000000         0.903116688       291.149927624     -9247.947287770     -9239.342373282        66.774281025
      1660          830.000000         0.934459625       301.254373700     -9247.946442818     -9239.275888220        66.374482870
      1670          835.000000         0.919116270       296.307928977     -9247.941568094     -9239.307703626        82.702394962
      1680          840.000000         0.930568689       300.000000000     -9247.940420442     -9239.269239387        66.196780920
      1690          845.000000         0.928461547       299.320692355     -9247.977274774     -9239.317917780        69.634711027
      1700          850.000000         0.912011767       294.017554609     -9247.979354871     -9239.318235168        66.454410076
      1710          855.000000         0.935287663       301.521319485     -9247.969176610     -9239.275972740        68.533616066
      1720          860.000000         0.918065315       295.969118637     -9247.984940982     -9239.276181445        66.394624949
      1730          865.000000         0.925945316       298.509500771     -9247.986544010     -9239.275965912        65.902920008
      1740          870.000000         0.930115650       299.853947867     -9247.943290210     -9239.209582032        70.076940060
      1750          875.000000         0.933515834       300.950111129     -9247.957266729     -9239.209861670        65.781645060
      1760          880.000000         0.954692644       307.777165325     -9247.929898672     -9239.209485104        65.782975912
      1770          885.000000         0.946693706       305.198439751     -9247.984966586     -9239.245758254        68.804883003
      1780          890.000000         0.918183567       296.007240952     -9247.976186752     -9239.245947080        66.394776106
      1790          895.000000         0.954192608       307.615962090     -9247.966000251     -9239.159372001        66.687568903
      1800          900.000000         0.956822333       308.463742051     -9247.939343175     -9239.159559584        66.851815939
      1810          905.000000         0.951381342       306.709656394     -9247.933901396     -9239.113803277        66.183228016
      1820          910.000000         0.927670778       299.065761306     -9247.921097940     -9239.183261378        66.458504915
      1830          915.000000         0.931011854       300.142869051     -9247.917098055     -9239.183120588        65.879488945
      1840          920.000000         0.951013005       306.590910324     -9247.909934482     -9239.183025860        69.367563963
      1850          925.000000         0.936765663       301.997802349     -9247.934775456     -9239.215716722        66.667703867
      1860          930.000000         0.930568689       300.000000000     -9247.921230001     -9239.208756313        66.470009089
      1870          935.000000         0.935774935       301.678407927     -9247.909920511     -9239.208886597        67.462635040
      1880          940.000000         0.948953903       305.927090060     -9247.917882940     -9239.208770099        70.649606943
      1890          945.000000         0.951611005       306.783695911     -9247.896631826     -9239.242950833        70.309679031
      1900          950.000000         0.959240020       309.243164442     -9247.930294382     -9239.242970051        66.373967886
      1910          955.000000         0.936164132       301.803878713     -9247.913640039     -9239.242764429        66.474365950
      1920          960.000000         0.942846313       303.958103768     -9247.922885843     -9239.242740830        66.310374022
      1930          965.000000         0.934843817       301.378231016     -9247.943897805     -9239.281128600        66.288034916
      1940          970.000000         0.937478488       302.227605476     -9247.998779813     -9239.390500927        66.814815044
      1950          975.000000         0.936363064       301.868010963     -9247.988217913     -9239.358702622        66.109192848
      1960          980.000000         0.914463846       294.808064363     -9247.974690599     -9239.358800177        66.482044935
      1970          985.000000         0.913840997       294.607267950     -9247.946192073     -9239.358701747        69.540332794
      1980          990.000000         0.919011185       296.274051268     -9247.944901207     -9239.324682638        66.842172146
      1990          995.000000         0.942078772       303.710660941     -9247.919446559     -9239.324399136        70.046629906
      2000         1000.000000         0.919545554       296.446323012     -9247.898613770     -9239.324201197        66.194055080
      2010         1005.000000         0.902147402       290.837445821     -9247.886561487     -9239.324211527        69.143496037
      2020         1010.000000         0.912328153       294.119552249     -9247.918550896     -9239.324016688        76.537941933
      2030         1015.000000         0.925641512       298.411559601     -9247.922550526     -9239.285674074        69.398000002
      2040         1020.000000         0.928699541       299.397417634     -9247.944335344     -9239.285710778        71.201515913
      2050         1025.000000         0.946837935       305.244936667     -9247.917900655     -9239.285585362        66.393583059
      2060         1030.000000         0.930568689       300.000000000     -9247.955739959     -9239.329553253        66.162595987
      2070         1035.000000         0.928448754       299.316567962     -9247.956894876     -9239.329665520        75.732128143
      2080         1040.000000         0.934743795       301.345985469     -9247.929568030     -9239.287901436        69.547718048
      2090         1045.000000         0.949448220       306.086449664     -9247.923629657     -9239.254041034        69.914031982
      2100         1050.000000         0.910225437       293.441671148     -9247.968276498     -9239.291781079        66.948027849
      2110         1055.000000         0.919284055       296.362020161     -9247.961296060     -9239.306187540        72.269574881
      2120         1060.000000         0.910835796       293.638440669     -9247.966006603     -9239.306100439        66.558846951
      2130         1065.000000         0.929980047       299.810231701     -9247.979066581     -9239.306052704        76.684895039
      2140         1070.000000         0.941213554       303.431729118     -9248.001980054     -9239.361575984        76.539609194
      2150         1075.000000         0.905930386       292.057017531     -9247.950000980     -9239.361399123        78.352410793
      2160         1080.000000         0.905781281       292.008948467     -9247.936568759     -9239.361239120        75.052577019
      2170         1085.000000         0.930568689       300.000000000     -9247.928727894     -9239.323644441        70.555403948
      2180         1090.000000         0.929166106       299.547830414     -9247.938733342     -9239.323344056        69.379084826
      2190         1095.000000         0.923314429       297.661346421     -9247.940294288     -9239.364602659        70.012907028
      2200         1100.000000         0.942581380       303.872693492     -9247.915082626     -9239.315947691        69.429189920
      2210         1105.000000         0.930568689       300.000000000     -9247.913649129     -9239.347975505        69.753312111
      2220         1110.000000         0.930550370       299.994094475     -9247.906173125     -9239.304198650        66.516862869
      2230         1115.000000         0.905932899       292.057827644     -9247.882025919     -9239.304003382        65.844294071
      2240         1120.000000         0.950640291       306.470753720     -9247.902704653     -9239.265987101        66.463310957
      2250         1125.000000         0.994272389       320.537022485     -9247.939974741     -9239.265767660        69.822609901
      2260         1130.000000         0.985173450       317.603674591     -9247.931493198     -9239.265840842        88.244772196
      2270         1135.000000         0.969140940       312.435057852     -9247.916764073     -9239.265929545        97.691791058