#     Step Nr.          Time[fs]        Kin.[a.u.]          Temp[K]            Pot.[a.u.]        Cons Qty[a.u.]        UsedTime[s]
      4101         2050.500000         0.990320650       319.263046938     -9247.958881370     -9239.254936423      1213.450839043
      4102         2051.000000         0.993579289       320.313578549     -9247.962562910     -9239.254848103       469.754925013
      4103         2051.500000         0.991612133       319.679399880     -9247.960696057     -9239.254666729       345.738642931
      4104         2052.000000         0.986997952       318.191864027     -9247.955118800     -9239.254506533       234.443624020
      4105         2052.500000         0.980717481       316.167143655     -9247.948044696     -9239.254398551       246.132661104
      4106         2053.000000         0.974970193       314.314312917     -9247.941875460     -9239.254266824       220.456988811
      4107         2053.500000         0.972461561       313.505571251     -9247.939157491     -9239.254171243       407.422296047
      4108         2054.000000         0.975484248       314.480035609     -9247.941856114     -9239.254182428       440.450232983
      4109         2054.500000         0.982097188       316.611938334     -9247.950073914     -9239.254392555       428.704637051
      4110         2055.000000         0.992057627       319.823019754     -9247.961124290     -9239.254720893       453.384577990
      4111         2055.500000         1.000401141       322.512831098     -9247.970418828     -9239.255022553       314.603676081
      4112         2056.000000         1.004487881       323.830328720     -9247.973660254     -9239.255108334       332.759430885
      4113         2056.500000         1.000626141       322.585367405     -9247.969380492     -9239.254941529       468.823701143
      4114         2057.000000         0.990916881       319.455262185     -9247.959721941     -9239.254640465       440.202662945
      4115         2057.500000         0.982406056       316.711512341     -9247.949326852     -9239.254332805       196.959441900
      4116         2058.000000         0.975956586       314.632309553     -9247.943099669     -9239.254185760       242.764398098
      4117         2058.500000         0.976685062       314.867158217     -9247.943796883     -9239.254259032       209.638431072
      4118         2059.000000         0.984327496       317.330953118     -9247.950839356     -9239.254498708       259.791253805
      4119         2059.500000         0.993474282       320.279726048     -9247.960804633     -9239.254844651       443.781675100
      4120         2060.000000         1.000925793       322.681970207     -9247.968951321     -9239.255104809       446.207891941
      4121         2060.500000         1.004551831       323.850945118     -9247.971286975     -9239.255183635       438.723613977
      4122         2061.000000         1.000331555       322.490397560     -9247.966175185     -9239.255060333       309.348348141
      4123         2061.500000         0.988187424       318.575330214     -9247.955601377     -9239.254758357       190.325067043
      4124         2062.000000         0.978100430       315.323449575     -9247.944288619     -9239.254423466       208.668257952
      4125         2062.500000         0.971226658       313.107459014     -9247.937359162     -9239.254261933       222.324723005
      4126         2063.000000         0.969188500       312.450390276     -9247.937571602     -9239.254331204       206.289774895
      4127         2063.500000         0.975773256       314.573206978     -9247.944315022     -9239.254541431       272.757091999
      4128         2064.000000         0.985376081       317.668999623     -9247.954546414     -9239.254783471       297.396263123
      4129         2064.500000         0.995081012       320.797709190     -9247.964468658     -9239.255010221       493.565193892
      4130         2065.000000         1.000767757       322.631022076     -9247.970769532     -9239.255185448       229.994682074
      4131         2065.500000         1.000337173       322.492208712     -9247.970984332     -9239.255289213       300.811429024
      4132         2066.000000         0.992655135       320.015646513     -9247.964226186     -9239.255235514       183.507652044
      4133         2066.500000         0.980256576       316.018555645     -9247.952124054     -9239.254995734       451.811664820
      4134         2067.000000         0.966419898       311.557838618     -9247.938987168     -9239.254692473       278.659979105
      4135         2067.500000         0.959928661       309.465170788     -9247.930200643     -9239.254463565       314.540922880
      4136         2068.000000         0.958891057       309.130664417     -9247.929942563     -9239.254434534       442.547399044
      4137         2068.500000         0.968018949       312.073346258     -9247.939209634     -9239.254656044       433.205729961
      4138         2069.000000         0.983141336       316.948554595     -9247.955089314     -9239.255093527       345.101073027
      4139         2069.500000         0.998543775       321.914046800     -9247.971469296     -9239.255607982       332.630341053
      4140         2070.000000         1.009258471       325.368288372     -9247.981506723     -9239.255911995       440.768786907
      4141         2070.500000         1.007497440       324.800561010     -9247.980980195     -9239.255846060       438.018527031
      4142         2071.000000         0.998142166       321.784574656     -9247.970644102     -9239.255507256       193.263756037
      4143         2071.500000         0.983672617       317.119830862     -9247.955942935     -9239.255068407       333.789475918
      4144         2072.000000         0.971359130       313.150165517     -9247.943865117     -9239.254773937       298.836595058
      4145         2072.500000         0.966397421       311.550592537     -9247.939277892     -9239.254737196       313.539586067
      4146         2073.000000         0.969440041       312.531483133     -9247.943152104     -9239.254908832       422.676213026
      4147         2073.500000         0.978793362       315.546839309     -9247.953115401     -9239.255159988       350.682301044
      4148         2074.000000         0.990932240       319.460213595     -9247.964933881     -9239.255412934       452.760334969
      4149         2074.500000         0.999504192       322.223669567     -9247.974214901     -9239.255605358       260.856498957
      4150         2075.000000         1.003366370       323.468772150     -9247.978240685     -9239.255603812       299.021876097
      4151         2075.500000         1.002144926       323.074998555     -9247.977032110     -9239.255475837       190.145546913
      4152         2076.000000         0.998118689       321.777006269     -9247.972464512     -9239.255318857       447.434114933
      4153         2076.500000         0.993886882       320.412741324     -9247.966800189     -9239.255247578       451.783247948
      4154         2077.000000         0.986277196       317.959504155     -9247.960792426     -9239.255307149       194.087758064
      4155         2077.500000         0.980382954       316.059297788     -9247.954177593     -9239.255320610       333.573607922
      4156         2078.000000         0.972103373       313.390097242     -9247.947544769     -9239.255205635       337.606395006
      4157         2078.500000         0.967170427       311.799796926     -9247.942859631     -9239.255092662       422.280198097
      4158         2079.000000         0.967511745       311.909832071     -9247.941807850     -9239.255162072       334.200593948
      4159         2079.500000         0.971030901       313.044349963     -9247.944002461     -9239.255371996       438.472428083
      4160         2080.000000         0.973998229       314.000967740     -9247.946813629     -9239.255606148       226.775527954
      4161         2080.500000         0.972571600       313.541046035     -9247.947054212     -9239.255681414       443.982095957
      4162         2081.000000         0.969163554       312.442348206     -9247.943071171     -9239.255612166       416.177368164
      4163         2081.500000         0.962652164       310.343183331     -9247.935470221     -9239.255452332       440.436661005
      4164         2082.000000         0.955726654       308.110513211     -9247.926727712     -9239.255260248       180.523997784
      4165         2082.500000         0.948310328       305.719612089     -9247.919635149     -9239.255165222       201.714224100
      4166         2083.000000         0.943359950       304.123691583     -9247.915914625     -9239.255167419       302.739284039
      4167         2083.500000         0.942013490       303.689615274     -9247.915716528     -9239.255269103       201.797021866
      4168         2084.000000         0.945241724       304.730344677     -9247.917648566     -9239.255415998       237.256366014
      4169         2084.500000         0.948615489       305.817990963     -9247.919970840     -9239.255541638       309.771716118
      4170         2085.000000         0.949772366       306.190948926     -9247.921535475     -9239.255537140       446.415345907
      4171         2085.500000         0.949647955       306.150840701     -9247.922526203     -9239.255475668       402.352362156
      4172         2086.000000         0.950127254       306.305359092     -9247.923617097     -9239.255489153       341.789758921
      4173         2086.500000         0.949970838       306.254932875     -9247.925199161     -9239.255589724       198.064201117
      4174         2087.000000         0.950266312       306.350188891     -9247.926450737     -9239.255698220       461.423066854
      4175         2087.500000         0.949779120       306.193126288     -9247.925869844     -9239.255806368       306.399245977
      4176         2088.000000         0.946920747       305.271633954     -9247.922021712     -9239.255847271       440.659518003
      4177         2088.500000         0.940555339       303.219531307     -9247.914985910     -9239.255762734       302.271991014
      4178         2089.000000         0.932919905       300.757993271     -9247.906707756     -9239.255633116       237.942843914
      4179         2089.500000         0.926063502       298.547601976     -9247.899887201     -9239.255504312       440.292556047
      4180         2090.000000         0.922929022       297.537097476     -9247.896613297     -9239.255512023       279.615190983
      4181         2090.500000         0.922538189       297.411099341     -9247.896987890     -9239.255632340       412.021293163
      4182         2091.000000         0.924701587       298.108543294     -9247.899763522     -9239.255782044       235.132755041
      4183         2091.500000         0.927813882       299.111895879     -9247.903017998     -9239.255911030       195.963147879
      4184         2092.000000         0.929684639       299.714996962     -9247.905091216     -9239.255934545       189.685697079
      4185         2092.500000         0.931460287       300.287436688     -9247.905262394     -9239.255909800       191.305969000
      4186         2093.000000         0.930239310       299.893813721     -9247.903729680     -9239.255849385       476.934372902
      4187         2093.500000         0.927451281       298.994999320     -9247.901423266     -9239.255753385       192.899399042
      4188         2094.000000         0.926527354       298.697140278     -9247.899423627     -9239.255702917       180.576827049
      4189         2094.500000         0.924480645       298.037315186     -9247.898512864     -9239.255723692       238.478302002
      4190         2095.000000         0.923410123       297.692196339     -9247.899008280     -9239.255755483       286.737097025
      4191         2095.500000         0.924887552       298.168495164     -9247.901244960     -9239.255764745       288.880437851
      4192         2096.000000         0.930084205       299.843810583     -9247.905737917     -9239.255764129       300.518954992
      4193         2096.500000         0.935363906       301.545898967     -9247.912670612     -9239.255897436       344.890566111
      4194         2097.000000         0.942703988       303.912220472     -9247.920721853     -9239.256135109       232.598521948
      4195         2097.500000         0.949007063       305.944227872     -9247.927087635     -9239.256299299       432.206384897
      4196         2098.000000         0.951386433       306.711297364     -9247.929092612     -9239.256315073       179.947933197
      4197         2098.500000         0.948124612       305.659740309     -9247.926076209     -9239.256184436       328.386348009
      4198         2099.000000         0.943330998       304.114358221     -9247.920287453     -9239.255927000       455.158604860
      4199         2099.500000         0.938546273       302.571841611     -9247.915430809     -9239.255734799       470.975990057
      4200         2100.000000         0.936854884       302.026565846     -9247.914004159     -9239.255754869       196.237866879
      4201         2100.500000         0.939283184       302.809409634     -9247.915893868     -9239.255949287       215.871144056
      4202         2101.000000         0.942103193       303.718534072     -9247.919054996     -9239.256114555       446.752257109
      4203         2101.500000         0.944319889       304.433160275     -9247.921284528     -9239.256171070       409.886895895
      4204         2102.000000         0.944431471       304.469132363     -9247.921483991     -9239.256123869       268.248063087
      4205         2102.500000         0.942516680       303.851835470     -9247.920399120     -9239.256033197       213.377963066
      4206         2103.000000         0.941739147       303.601171528     -9247.919744719     -9239.255929130       426.312871933
      4207         2103.500000         0.944080640       304.356030402     -9247.921038652     -9239.255915830       228.844414949
      4208         2104.000000         0.947781656       305.549176800     -9247.924372318     -9239.255990377       338.867074013
      4209         2104.500000         0.952534105       307.081288045     -9247.928997034     -9239.256076748       319.731642008
      4210         2105.000000         0.955605752       308.071536232     -9247.933806311     -9239.256154060       235.328656912
      4211         2105.500000         0.960390653       309.614109676     -9247.937923258     -9239.256220697       308.297384977
      4212         2106.000000         0.965138525       311.144745233     -9247.940827996     -9239.256268923       262.303930044
      4213         2106.500000         0.966570408       311.606360782     -9247.942243874     -9239.256286406       518.660645008
      4214         2107.000000         0.966566290       311.605033036     -9247.942022934     -9239.256314624       238.455208063
      4215         2107.500000         0.963551776       310.633203621     -9247.940066887     -9239.256357914       196.474732876
      4216         2108.000000         0.960020134       309.494660203     -9247.936626427     -9239.256319132       345.212831020
      4217         2108.500000         0.956755625       308.442236593     -9247.932702449     -9239.256235974       447.388693094
      4218         2109.000000         0.953923011       307.529048271     -9247.929747820     -9239.256154540       414.670144081
      4219         2109.500000         0.953380422       307.354126518     -9247.928998357     -9239.256183124       265.505668879
      4220         2110.000000         0.954211358       307.622006862     -9247.930311004     -9239.256303143       292.517993927
      4221         2110.500000         0.956411139       308.331179999     -9247.932323163     -9239.256422522       396.764362097
      4222         2111.000000         0.956849507       308.472502593     -9247.932925534     -9239.256541909       304.535114050
      4223         2111.500000         0.955827026       308.142871450     -9247.930493220     -9239.256571289       267.681020021
      4224         2112.000000         0.949455575       306.088820802     -9247.925314225     -9239.256439887       438.796372890
      4225         2112.500000         0.944009000       304.332934665     -9247.919682124     -9239.256279201       243.810228109
      4226         2113.000000         0.941246148       303.442236709     -9247.916710659     -9239.256181173       233.366122961
      4227         2113.500000         0.943489178       304.165352556     -9247.918582119     -9239.256228250       354.812994003
      4228         2114.000000         0.950702661       306.490860708     -9247.925147464     -9239.256430337       203.604815006
      4229         2114.500000         0.958550687       309.020934779     -9247.933819958     -9239.256699276       432.418618917
      4230         2115.000000         0.965793160       311.355788735     -9247.940694188     -9239.256900549       261.406691074
      4231         2115.500000         0.967444749       311.888233892     -9247.942777163     -9239.256932073       298.887053013
      4232         2116.000000         0.965279300       311.190128654     -9247.940067748     -9239.256762230       152.830198050
      4233         2116.500000         0.958211780       308.911676801     -9247.935217290     -9239.256549364       444.125319958
      4234         2117.000000         0.954367171       307.672238150     -9247.931791073     -9239.256379246       233.068897009
      4235         2117.500000         0.953879571       307.515043980     -9247.932434590     -9239.256362453       191.822398901
      4236         2118.000000         0.958634547       309.047970037     -9247.937496089     -9239.256499655       423.169104099
      4237         2118.500000         0.966073725       311.446238089     -9247.945285990     -9239.256685998       285.954776049
      4238         2119.000000         0.974897309       314.290816158     -9247.953013316     -9239.256896670       197.222837925
      4239         2119.500000         0.978606943       315.486741192     -9247.957973645     -9239.257056007       288.819262028
      4240         2120.000000         0.979011951       315.617308858     -9247.958371913     -9239.257151942       198.224379063
      4241         2120.500000         0.972933372       313.657675474     -9247.953640028     -9239.257160688       435.892873764
      4242         2121.000000         0.965539601       311.274045561     -9247.944525182     -9239.257081935       232.552677155
      4243         2121.500000         0.954404646       307.684319454     -9247.932977455     -9239.256962881       245.347481966
      4244         2122.000000         0.944055923       304.348061906     -9247.921655933     -9239.256825385       337.094858885
      4245         2122.500000         0.937313602       302.174448778     -9247.913299269     -9239.256672807       432.673292160
      4246         2123.000000         0.934848957       301.379887829     -9247.910008273     -9239.256609798       195.169478893
      4247         2123.500000         0.936126213       301.791654057     -9247.912278406     -9239.256690550       311.523686171
      4248         2124.000000         0.943262211       304.092182344     -9247.918670243     -9239.256883120       248.038199902
      4249         2124.500000         0.950107978       306.299144652     -9247.926013844     -9239.257146021       436.203752041
      4250         2125.000000         0.955134752       307.919693599     -9247.930560301     -9239.257381217       307.369366884
      4251         2125.500000         0.953747460       307.472453705     -9247.929703464     -9239.257387792       431.291912079
      4252         2126.000000         0.948266041       305.705334503     -9247.923531166     -9239.257176672       244.688582897
      4253         2126.500000         0.940300298       303.137310493     -9247.914894995     -9239.256880216       260.065539122
      4254         2127.000000         0.933480579       300.938745416     -9247.908205421     -9239.256624371       422.950721025
      4255         2127.500000         0.932968473       300.773650876     -9247.907150126     -9239.256544056       179.931431055
      4256         2128.000000         0.938075948       302.420216602     -9247.912879607     -9239.256664163       192.091541767
      4257         2128.500000         0.948185543       305.679383447     -9247.923707837     -9239.256951379       447.676435232
      4258         2129.000000         0.959326182       309.270941721     -9247.935799453     -9239.257282840       442.766935825
      4259         2129.500000         0.968676900       312.285458932     -9247.944743000     -9239.257513077       196.445441008
      4260         2130.000000         0.971394489       313.161564894     -9247.947225162     -9239.257600662       314.210685015
      4261         2130.500000         0.965641767       311.306982015     -9247.942572582     -9239.257486866       453.925234079
      4262         2131.000000         0.956038538       308.211059526     -9247.932969614     -9239.257238394       240.131908894
      4263         2131.500000         0.947573091       305.481939030     -9247.922313060     -9239.256992922       192.596418142
      4264         2132.000000         0.939637654       302.923684928     -9247.914675106     -9239.256846046       215.403744936
      4265         2132.500000         0.938630411       302.598966269     -9247.912628742     -9239.256843938       205.081607103
      4266         2133.000000         0.941116482       303.400434561     -9247.916283602     -9239.256960300       454.852780819
      4267         2133.500000         0.949162609       305.994373333     -9247.923612145     -9239.257126694       424.748625040
      4268         2134.000000         0.957125913       308.561611358     -9247.931586592     -9239.257243348       199.587149143
      4269         2134.500000         0.963093211       310.485369555     -9247.937687151     -9239.257294678       231.093856812
      4270         2135.000000         0.965002541       311.100906301     -9247.940927370     -9239.257279013       351.138271093
      4271         2135.500000         0.965669655       311.315972593     -9247.942111470     -9239.257222500       440.244385004
      4272         2136.000000         0.967242127       311.822911684     -9247.942777705     -9239.257165452       318.715437889
      4273         2136.500000         0.969422766       312.525913844     -9247.944078386     -9239.257178969       303.466372013
      4274         2137.000000         0.971229050       313.108230053     -9247.946291825     -9239.257212148       441.679293156
      4275         2137.500000         0.973971981       313.992505643     -9247.949620715     -9239.257228755       311.085313797
      4276         2138.000000         0.978442221       315.433637420     -9247.954373980     -9239.257263174       446.841913223
      4277         2138.500000         0.985281174       317.638403002     -9247.960346123     -9239.257362500       189.346652985
      4278         2139.000000         0.990675840       319.377554277     -9247.966188578     -9239.257531679       190.411303997
      4279         2139.500000         0.992236667       319.880739419     -9247.969455871     -9239.257704896       441.146536827
      4280         2140.000000         0.991604596       319.676970008     -9247.968041641     -9239.257757535       191.668260098
      4281         2140.500000         0.984022712       317.232695573     -9247.961424877     -9239.257673891       445.364453077
      4282         2141.000000         0.972542976       313.531818071     -9247.950999369     -9239.257491957       199.139066935
      4283         2141.500000         0.960137438       309.532477332     -9247.939713064     -9239.257270071       249.178190947
      4284         2142.000000         0.952328031       307.014853293     -9247.930885988     -9239.257112863       289.737326145
      4285         2142.500000         0.948042016       305.633112677     -9247.926907311     -9239.257132080       253.873591900
      4286         2143.000000         0.946901822       305.265532925     -9247.928023678     -9239.257274093       232.405631065
      4287         2143.500000         0.950869645       306.544693591     -9247.932361865     -9239.257454247       444.599412918
      4288         2144.000000         0.955566640       308.058927378     -9247.936759811     -9239.257602935       195.678320885
      4289         2144.500000         0.958045517       308.858076468     -9247.938361169     -9239.257651462       242.132861137
      4290         2145.000000         0.955874014       308.158019701     -9247.936132675     -9239.257582818       333.558537960
      4291         2145.500000         0.949996196       306.263108009     -9247.931350762     -9239.257443950       200.548859119
      4292         2146.000000         0.946967775       305.286794973     -9247.926621234     -9239.257336846       203.958962917
      4293         2146.500000         0.944479872       304.484736152     -9247.924128224     -9239.257343906       307.843765020
      4294         2147.000000         0.945241003       304.730112156     -9247.924704418     -9239.257420769       440.498535872
      4295         2147.500000         0.949601649       306.135912476     -9247.928250363     -9239.257491576       428.611901999
      4296         2148.000000         0.956940764       308.501922222     -9247.934518001     -9239.257527919       204.837773085
      4297         2148.500000         0.967206965       311.811575975     -9247.943227376     -9239.257594195       301.168652058
      4298         2149.000000         0.976260662       314.730338650     -9247.953449390     -9239.257735297       188.857890844
      4299         2149.500000         0.987019805       318.198909136     -9247.963112757     -9239.257953248       359.843374014
      4300         2150.000000         0.990654725       319.370747252     -9247.969043177     -9239.258173023       234.231486082
      4301         2150.500000         0.990882046       319.444031827     -9247.968446954     -9239.258249348       432.720911026
      4302         2151.000000         0.982652870       316.791081227     -9247.960692519     -9239.258098594       194.170121908
      4303         2151.500000         0.970503571       312.874347592     -9247.948360986     -9239.257791111       192.527965069
      4304         2152.000000         0.957971828       308.834320398     -9247.936243625     -9239.257480947       281.132921934
      4305         2152.500000         0.951783954       306.839451752     -9247.929100945     -9239.257315664       222.192902088
      4306         2153.000000         0.952470099       307.060653533     -9247.929483283     -9239.257352496       362.539906025
      4307         2153.500000         0.960188365       309.548895074     -9247.936961768     -9239.257528931       435.240134954
      4308         2154.000000         0.971194742       313.097169549     -9247.948599465     -9239.257778289       192.459477901
      4309         2154.500000         0.982600193       316.774099085     -9247.960196626     -9239.258005454       197.973329067
      4310         2155.000000         0.991105438       319.516049810     -9247.968345683     -9239.258132929       285.921509981
      4311         2155.500000         0.995995202       321.092428977     -9247.971648173     -9239.258148399       472.181245089
      4312         2156.000000         0.995270017       320.858641384     -9247.970561899     -9239.258067526       442.356864929
      4313         2156.500000         0.992265463       319.890022633     -9247.966808989     -9239.257936260       279.263260126
      4314         2157.000000         0.987807294       318.452782638     -9247.962843722     -9239.257792198       243.479306936
      4315         2157.500000         0.988125014       318.555210029     -9247.961532600     -9239.257650695       208.368458986
      4316         2158.000000         0.989675601       319.055093894     -9247.965434426     -9239.257599563       217.940723896
      4317         2158.500000         1.000712437       322.613187900     -9247.975711494     -9239.257687512       216.517956018
      4318         2159.000000         1.016100938       327.574186906     -9247.991153289     -9239.257962784       251.385401011
      4319         2159.500000         1.030511862       332.220031057     -9248.007788980     -9239.258370027       264.176424980
      4320         2160.000000         1.040951319       335.585539883     -9248.019847496     -9239.258737215       448.674894094
      4321         2160.500000         1.042379370       336.045919929     -9248.021858223     -9239.258908728       209.964768887
      4322         2161.000000         1.032333198       332.807199610     -9248.011121572     -9239.258808591       259.479538202
      4323         2161.500000         1.012010039       326.255348269     -9247.989653118     -9239.258405387       270.346246004
      4324         2162.000000         0.988419586       318.650175443     -9247.964039132     -9239.257849304       337.603652000
      4325         2162.500000         0.966610228       311.619197911     -9247.942910678     -9239.257439320       218.461325884
      4326         2163.000000         0.957161557       308.573102184     -9247.932537995     -9239.257367670       296.373871088
      4327         2163.500000         0.958017372       308.849002984     -9247.934114433     -9239.257656188       442.475536823
      4328         2164.000000         0.968050701       312.083582576     -9247.943551416     -9239.258094484       445.442929029