ATOMS
H             0.00000000      0.00000000     -0.00998254            -0.00071475      0.70710642     -0.00002140
H             0.00000000      0.00000000      0.73998166             0.00071475     -0.70710642      0.00002140
