ATOMS
H             0.00000000      0.00000000     -0.00998254             0.70710641      0.00071476      0.00013846
H             0.00000000      0.00000000      0.73998166            -0.70710641     -0.00071476     -0.00013846
