     183
 i =       0, E =    -5729.4041307832
 Au         0.0000997223        0.0008241144        0.0010433626
 Au         0.0000608890        2.9558240941        0.0006997242
 Au         0.0000220427        5.9118240739        0.0003559695
 Au         2.9560997197        0.0008629472        0.0009273809
 Au         2.9560608865        2.9558629270        0.0005837425
 Au         2.9560220401        5.9118629068        0.0002399878
 Au         5.9120997172        0.0009017801        0.0008113992
 Au         5.9120608840        2.9559017599        0.0004677608
 Au         5.9120220376        5.9119017396        0.0001240061
 Au         8.6700997149        0.0009380119        0.0007031862
 Au         8.6700608816        2.9559379917        0.0003595478
 Au         8.6700220353        5.9119379714        0.0000157931
 Au        11.6260997123        0.0009768448        0.0005872045
 Au        11.6260608791        2.9559768245        0.0002435661
 Au        11.6260220327        5.9119768043       -0.0001001886
 Au         1.4781622979        1.4790865689        2.0908134786
 Au         1.4781234647        4.4340865486        2.0904698403
 Au         1.4780846183        7.3900865284        2.0901260856
 Au         4.4341622954        1.4791254018        2.0906974969
 Au         4.4341234622        4.4341253815        2.0903538585
 Au         4.4340846158        7.3901253613        2.0900101039
 Au         7.1921622930        1.4791616335        2.0905892840
 Au         7.1921234598        4.4341616133        2.0902456456
 Au         7.1920846134        7.3901615930        2.0899018909
 Au        10.1481622905        1.4792004664        2.0904733022
 Au        10.1481234573        4.4342004462        2.0901296639
 Au        10.1480846109        7.3902004259        2.0897859092
 Au        13.1041622880        1.4792392993        2.0903573205
 Au        13.1041234548        4.4342392790        2.0900136822
 Au        13.1040846084        7.3902392588        2.0896699275
 Au         0.0002637225        0.0013102107        4.1810433311
 Au         0.0002248893        2.9563101905        4.1806996927
 Au         0.0001860429        5.9123101703        4.1803559380
 Au         2.9562637200        0.0013490436        4.1809273494
 Au         2.9562248867        2.9563490234        4.1805837110
 Au         2.9561860404        5.9123490031        4.1802399563
 Au         5.9122637174        0.0013878765        4.1808113677
 Au         5.9122248842        2.9563878563        4.1804677293
 Au         5.9121860378        5.9123878360        4.1801239746
 Au         8.6702637151        0.0014241083        4.1807031547
 Au         8.6702248819        2.9564240880        4.1803595163
 Au         8.6701860355        5.9124240678        4.1800157616
 Au        11.6262637125        0.0014629412        4.1805871730
 Au        11.6262248793        2.9564629209        4.1802435346
 Au        11.6261860329        5.9124629007        4.1798997799
 Au         1.4783262982        1.4795726653        6.2708134472
 Au         1.4782874649        4.4345726450        6.2704698088
 Au         1.4782486186        7.3905726248        6.2701260541
 Au         4.4343262956        1.4796114981        6.2706974654
 Au         4.4342874624        4.4346114779        6.2703538271
 Au         4.4342486160        7.3906114577        6.2700100724
 Au         7.1923262933        1.4796477299        6.2705892525
 Au         7.1922874600        4.4346477097        6.2702456141
 Au         7.1922486137        7.3906476894        6.2699018594
 Au        10.1483262907        1.4796865628        6.2704732708
 Au        10.1482874575        4.4346865425        6.2701296324
 Au        10.1482486111        7.3906865223        6.2697858777
 Au        13.1043262882        1.4797253957        6.2703572891
 Au        13.1042874550        4.4347253754        6.2700136507
 Au        13.1042486086        7.3907253552        6.2696698960
 Au         0.0004277227        0.0017963071        8.3610432996
 Au         0.0003888895        2.9567962869        8.3606996612
 Au         0.0003500431        5.9127962666        8.3603559065
 Au         2.9564277202        0.0018351400        8.3609273179
 Au         2.9563888870        2.9568351198        8.3605836795
 Au         2.9563500406        5.9128350995        8.3602399248
 Au         5.9124277177        0.0018739729        8.3608113362
 Au         5.9123888844        2.9568739527        8.3604676978
 Au         5.9123500381        5.9128739324        8.3601239431
 Au         8.6704277153        0.0019102047        8.3607031232
 Au         8.6703888821        2.9569101844        8.3603594848
 Au         8.6703500357        5.9129101642        8.3600157302
 Au        11.6264277128        0.0019490375        8.3605871415
 Au        11.6263888795        2.9569490173        8.3602435031
 Au        11.6263500332        5.9129489971        8.3598997485
 Au         1.4784902984        1.4800587616       10.4508134157
 Au         1.4784514652        4.4350587414       10.4504697773
 Au         1.4784126188        7.3910587212       10.4501260226
 Au         4.4344902959        1.4800975945       10.4506974340
 Au         4.4344514626        4.4350975743       10.4503537956
 Au         4.4344126163        7.3910975540       10.4500100409
 Au         7.1924902935        1.4801338263       10.4505892210
 Au         7.1924514603        4.4351338060       10.4502455826
 Au         7.1924126139        7.3911337858       10.4499018279
 Au        10.1484902910        1.4801726592       10.4504732393
 Au        10.1484514577        4.4351726389       10.4501296009
 Au        10.1484126114        7.3911726187       10.4497858462
 Au        13.1044902884        1.4802114921       10.4503572576
 Au        13.1044514552        4.4352114718       10.4500136192
 Au        13.1044126088        7.3912114516       10.4496698645
  N         4.8554941081        5.9132870672       12.0321653880
  N         9.5284941562        5.9153486888       12.0339818054
  N         7.1924941177        5.9363186985       12.0400710186
  H        10.3427184422        5.9073310551       12.6502507967
  H         4.0531190349        5.9061501267       12.6650977035
  C         8.3828214538        5.9189146810       12.7309263458
  C         5.9977221044        5.9193852900       12.7477198694
  N         8.3393742434        5.9044700093       14.0715297404
  N         5.9157753414        5.9061414848       14.1001246349
  C         7.0993997618        5.8965290412       14.7192793185
  N         8.6868235524        5.8733195068       15.3178197403
  H         7.4659501049        5.8708820690       15.9937679292
  H         6.7624793329        5.8466585105       16.7305983520
 Au         7.1928473459        5.9373656663       21.0430709508
 Au         5.9129072830        7.1955754936       22.9919748648
 Au         8.6709435250        4.4376117442       22.9921873810
 Au         5.9129435405        4.4365755125       22.9922957103
 Au         8.6709072806        7.1956117253       22.9918666518
 Au         1.4790643776        1.4817603316       25.0828133055
 Au         1.4790255444        4.4367603113       25.0824696671
 Au         1.4789866980        7.3927602911       25.0821259124
 Au         4.4350643751        1.4817991644       25.0826973238
 Au         4.4350255419        4.4367991442       25.0823536854
 Au         4.4349866955        7.3927991240       25.0820099307
 Au         7.1930643727        1.4818353962       25.0825891108
 Au         7.1930255395        4.4368353760       25.0822454724
 Au         7.1929866931        7.3928353557       25.0819017177
 Au        10.1490643702        1.4818742291       25.0824731291
 Au        10.1490255370        4.4368742089       25.0821294907
 Au        10.1489866906        7.3928741886       25.0817857360
 Au        13.1050643677        1.4819130620       25.0823571474
 Au        13.1050255345        4.4369130417       25.0820135090
 Au        13.1049866881        7.3929130215       25.0816697543
 Au         0.0011658022        0.0039839734       27.1730431579
 Au         0.0011269690        2.9589839532       27.1726995195
 Au         0.0010881226        5.9149839330       27.1723557649
 Au         2.9571657997        0.0040228063       27.1729271762
 Au         2.9571269664        2.9590227861       27.1725835378
 Au         2.9570881201        5.9150227658       27.1722397832
 Au         5.9131657971        0.0040616392       27.1728111945
 Au         5.9131269639        2.9590616190       27.1724675561
 Au         5.9130881175        5.9150615987       27.1721238014
 Au         8.6711657948        0.0040978710       27.1727029815
 Au         8.6711269615        2.9590978507       27.1723593432
 Au         8.6710881152        5.9150978305       27.1720155885
 Au        11.6271657922        0.0041367039       27.1725869998
 Au        11.6271269590        2.9591366836       27.1722433614
 Au        11.6270881126        5.9151366634       27.1718996068
 Au         1.4792283779        1.4822464279       29.2628132740
 Au         1.4791895446        4.4372464077       29.2624696356
 Au         1.4791506983        7.3932463875       29.2621258809
 Au         4.4352283753        1.4822852608       29.2626972923
 Au         4.4351895421        4.4372852406       29.2623536539
 Au         4.4351506957        7.3932852204       29.2620098992
 Au         7.1932283730        1.4823214926       29.2625890793
 Au         7.1931895397        4.4373214724       29.2622454409
 Au         7.1931506934        7.3933214521       29.2619016863
 Au        10.1492283704        1.4823603255       29.2624730976
 Au        10.1491895372        4.4373603052       29.2621294592
 Au        10.1491506908        7.3933602850       29.2617857045
 Au        13.1052283679        1.4823991584       29.2623571159
 Au        13.1051895347        4.4373991381       29.2620134775
 Au        13.1051506883        7.3933991179       29.2616697228
 Au         0.0013298024        0.0044700698       31.3530431264
 Au         0.0012909692        2.9594700496       31.3526994881
 Au         0.0012521228        5.9154700293       31.3523557334
 Au         2.9573297999        0.0045089027       31.3529271447
 Au         2.9572909667        2.9595088825       31.3525835064
 Au         2.9572521203        5.9155088622       31.3522397517
 Au         5.9133297974        0.0045477356       31.3528111630
 Au         5.9132909641        2.9595477154       31.3524675246
 Au         5.9132521178        5.9155476951       31.3521237700
 Au         8.6713297950        0.0045839674       31.3527029501
 Au         8.6712909618        2.9595839471       31.3523593117
 Au         8.6712521154        5.9155839269       31.3520155570
 Au        11.6273297925        0.0046228002       31.3525869683
 Au        11.6272909592        2.9596227800       31.3522433300
 Au        11.6272521129        5.9156227598       31.3518995753
 Au         1.4793923781        1.4827325243       33.4428132425
 Au         1.4793535448        4.4377325041       33.4424696041
 Au         1.4793146985        7.3937324839       33.4421258495
 Au         4.4353923755        1.4827713572       33.4426972608
 Au         4.4353535423        4.4377713370       33.4423536224
 Au         4.4353146959        7.3937713167       33.4420098677
 Au         7.1933923732        1.4828075890       33.4425890478
 Au         7.1933535400        4.4378075687       33.4422454094
 Au         7.1933146936        7.3938075485       33.4419016548
 Au        10.1493923707        1.4828464219       33.4424730661
 Au        10.1493535374        4.4378464016       33.4421294277
 Au        10.1493146911        7.3938463814       33.4417856731
 Au        13.1053923681        1.4828852547       33.4423570844
 Au        13.1053535349        4.4378852345       33.4420134460
 Au        13.1053146885        7.3938852143       33.4416696914
     183
 i =       1, E =    -5729.4041323749
 Au         0.0000997222        0.0008241141        0.0010433622
 Au         0.0000608890        2.9558240939        0.0006997240
 Au         0.0000220427        5.9118240736        0.0003559694
 Au         2.9560997197        0.0008629470        0.0009273806
 Au         2.9560608865        2.9558629267        0.0005837423
 Au         2.9560220401        5.9118629065        0.0002399877
 Au         5.9120997172        0.0009017798        0.0008113989
 Au         5.9120608840        2.9559017596        0.0004677606
 Au         5.9120220376        5.9119017394        0.0001240061
 Au         8.6700997148        0.0009380116        0.0007031860
 Au         8.6700608816        2.9559379914        0.0003595477
 Au         8.6700220353        5.9119379711        0.0000157931
 Au        11.6260997123        0.0009768445        0.0005872043
 Au        11.6260608791        2.9559768242        0.0002435660
 Au        11.6260220327        5.9119768040       -0.0001001886
 Au         1.4781622979        1.4790865685        2.0908134784
 Au         1.4781234647        4.4340865483        2.0904698401
 Au         1.4780846183        7.3900865281        2.0901260855
 Au         4.4341622954        1.4791254014        2.0906974967
 Au         4.4341234621        4.4341253812        2.0903538584
 Au         4.4340846158        7.3901253609        2.0900101039
 Au         7.1921622930        1.4791616332        2.0905892838
 Au         7.1921234598        4.4341616129        2.0902456455
 Au         7.1920846134        7.3901615927        2.0899018909
 Au        10.1481622905        1.4792004660        2.0904733021
 Au        10.1481234573        4.4342004458        2.0901296638
 Au        10.1480846109        7.3902004255        2.0897859093
 Au        13.1041622879        1.4792392989        2.0903573204
 Au        13.1041234547        4.4342392787        2.0900136822
 Au        13.1040846084        7.3902392584        2.0896699276
 Au         0.0002637224        0.0013102103        4.1810433308
 Au         0.0002248892        2.9563101901        4.1806996925
 Au         0.0001860428        5.9123101699        4.1803559379
 Au         2.9562637199        0.0013490432        4.1809273491
 Au         2.9562248867        2.9563490230        4.1805837108
 Au         2.9561860403        5.9123490027        4.1802399562
 Au         5.9122637174        0.0013878761        4.1808113674
 Au         5.9122248841        2.9563878558        4.1804677291
 Au         5.9121860378        5.9123878356        4.1801239746
 Au         8.6702637150        0.0014241078        4.1807031545
 Au         8.6702248818        2.9564240876        4.1803595162
 Au         8.6701860354        5.9124240674        4.1800157616
 Au        11.6262637125        0.0014629407        4.1805871728
 Au        11.6262248793        2.9564629205        4.1802435345
 Au        11.6261860329        5.9124629002        4.1798997800
 Au         1.4783262981        1.4795726648        6.2708134469
 Au         1.4782874648        4.4345726445        6.2704698086
 Au         1.4782486185        7.3905726243        6.2701260541
 Au         4.4343262955        1.4796114976        6.2706974652
 Au         4.4342874623        4.4346114774        6.2703538270
 Au         4.4342486160        7.3906114572        6.2700100724
 Au         7.1923262932        1.4796477294        6.2705892523
 Au         7.1922874600        4.4346477092        6.2702456140
 Au         7.1922486136        7.3906476889        6.2699018594
 Au        10.1483262906        1.4796865623        6.2704732706
 Au        10.1482874574        4.4346865420        6.2701296323
 Au        10.1482486111        7.3906865218        6.2697858778
 Au        13.1043262881        1.4797253951        6.2703572889
 Au        13.1042874549        4.4347253749        6.2700136507
 Au        13.1042486085        7.3907253547        6.2696698961
 Au         0.0004277226        0.0017963066        8.3610432993
 Au         0.0003888894        2.9567962863        8.3606996610
 Au         0.0003500430        5.9127962661        8.3603559064
 Au         2.9564277201        0.0018351394        8.3609273176
 Au         2.9563888868        2.9568351192        8.3605836793
 Au         2.9563500405        5.9128350990        8.3602399248
 Au         5.9124277175        0.0018739723        8.3608113359
 Au         5.9123888843        2.9568739521        8.3604676977
 Au         5.9123500380        5.9128739318        8.3601239431
 Au         8.6704277152        0.0019102041        8.3607031230
 Au         8.6703888820        2.9569101838        8.3603594847
 Au         8.6703500356        5.9129101636        8.3600157302
 Au        11.6264277126        0.0019490369        8.3605871413
 Au        11.6263888794        2.9569490167        8.3602435031
 Au        11.6263500331        5.9129489965        8.3598997485
 Au         1.4784902982        1.4800587610       10.4508134154
 Au         1.4784514650        4.4350587408       10.4504697771
 Au         1.4784126187        7.3910587205       10.4501260226
 Au         4.4344902957        1.4800975939       10.4506974337
 Au         4.4344514625        4.4350975736       10.4503537955
 Au         4.4344126161        7.3910975534       10.4500100409
 Au         7.1924902933        1.4801338256       10.4505892208
 Au         7.1924514601        4.4351338054       10.4502455825
 Au         7.1924126138        7.3911337851       10.4499018280
 Au        10.1484902908        1.4801726585       10.4504732391
 Au        10.1484514576        4.4351726383       10.4501296009
 Au        10.1484126112        7.3911726180       10.4497858463
 Au        13.1044902883        1.4802114914       10.4503572575
 Au        13.1044514551        4.4352114711       10.4500136192
 Au        13.1044126087        7.3912114509       10.4496698646
  N         4.8554941080        5.9132870668       12.0321653878
  N         9.5284941561        5.9153486883       12.0339818054
  N         7.1924941175        5.9363186977       12.0400710186
  H        10.3427164770        5.9073310564       12.6502508895
  H         4.0531209799        5.9061501286       12.6650977980
  C         8.3828212109        5.9189146727       12.7309267295
  C         5.9977229154        5.9193852960       12.7477195139
  N         8.3393720091        5.9044700547       14.0715280124
  N         5.9157765956        5.9061414538       14.1001256382
  C         7.0994002395        5.8965290497       14.7192786372
  N         8.6868241823        5.8733194663       15.3178209405
  H         7.4659486527        5.8708820461       15.9937690135
  H         6.7624797449        5.8466585277       16.7305981035
 Au         7.1928473830        5.9373656653       21.0430709508
 Au         5.9129072519        7.1955755677       22.9919748648
 Au         8.6709435692        4.4376117431       22.9921873809
 Au         5.9129435094        4.4365755113       22.9922957102
 Au         8.6709073248        7.1956117995       22.9918666519
 Au         1.4790643773        1.4817603304       25.0828133052
 Au         1.4790255441        4.4367603102       25.0824696669
 Au         1.4789866977        7.3927602899       25.0821259124
 Au         4.4350643748        1.4817991633       25.0826973235
 Au         4.4350255416        4.4367991430       25.0823536853
 Au         4.4349866952        7.3927991228       25.0820099307
 Au         7.1930643724        1.4818353950       25.0825891106
 Au         7.1930255392        4.4368353748       25.0822454723
 Au         7.1929866928        7.3928353545       25.0819017178
 Au        10.1490643699        1.4818742279       25.0824731289
 Au        10.1490255367        4.4368742077       25.0821294907
 Au        10.1489866903        7.3928741874       25.0817857361
 Au        13.1050643673        1.4819130608       25.0823571473
 Au        13.1050255341        4.4369130405       25.0820135090
 Au        13.1049866878        7.3929130203       25.0816697544
 Au         0.0011658018        0.0039839722       27.1730431576
 Au         0.0011269686        2.9589839520       27.1726995193
 Au         0.0010881223        5.9149839317       27.1723557648
 Au         2.9571657993        0.0040228051       27.1729271759
 Au         2.9571269661        2.9590227848       27.1725835377
 Au         2.9570881197        5.9150227646       27.1722397831
 Au         5.9131657968        0.0040616379       27.1728111943
 Au         5.9131269636        2.9590616177       27.1724675560
 Au         5.9130881172        5.9150615975       27.1721238014
 Au         8.6711657944        0.0040978697       27.1727029813
 Au         8.6711269612        2.9590978495       27.1723593430
 Au         8.6710881148        5.9150978292       27.1720155885
 Au        11.6271657919        0.0041367026       27.1725869996
 Au        11.6271269587        2.9591366823       27.1722433614
 Au        11.6270881123        5.9151366621       27.1718996068
 Au         1.4792283775        1.4822464266       29.2628132737
 Au         1.4791895443        4.4372464064       29.2624696355
 Au         1.4791506979        7.3932463861       29.2621258809
 Au         4.4352283749        1.4822852595       29.2626972921
 Au         4.4351895417        4.4372852393       29.2623536538
 Au         4.4351506954        7.3932852190       29.2620098992
 Au         7.1932283726        1.4823214913       29.2625890791
 Au         7.1931895394        4.4373214710       29.2622454409
 Au         7.1931506930        7.3933214508       29.2619016863
 Au        10.1492283701        1.4823603241       29.2624730975
 Au        10.1491895368        4.4373603039       29.2621294592
 Au        10.1491506905        7.3933602836       29.2617857046
 Au        13.1052283675        1.4823991570       29.2623571158
 Au        13.1051895343        4.4373991368       29.2620134775
 Au        13.1051506879        7.3933991165       29.2616697229
 Au         0.0013298020        0.0044700684       31.3530431261
 Au         0.0012909688        2.9594700482       31.3526994878
 Au         0.0012521224        5.9154700279       31.3523557333
 Au         2.9573297995        0.0045089013       31.3529271444
 Au         2.9572909663        2.9595088811       31.3525835062
 Au         2.9572521199        5.9155088608       31.3522397516
 Au         5.9133297969        0.0045477342       31.3528111628
 Au         5.9132909637        2.9595477139       31.3524675245
 Au         5.9132521174        5.9155476937       31.3521237699
 Au         8.6713297946        0.0045839659       31.3527029498
 Au         8.6712909614        2.9595839457       31.3523593116
 Au         8.6712521150        5.9155839254       31.3520155570
 Au        11.6273297921        0.0046227988       31.3525869682
 Au        11.6272909588        2.9596227786       31.3522433299
 Au        11.6272521125        5.9156227583       31.3518995753
 Au         1.4793923776        1.4827325229       33.4428132423
 Au         1.4793535444        4.4377325026       33.4424696040
 Au         1.4793146981        7.3937324824       33.4421258494
 Au         4.4353923751        1.4827713557       33.4426972606
 Au         4.4353535419        4.4377713355       33.4423536223
 Au         4.4353146955        7.3937713153       33.4420098677
 Au         7.1933923728        1.4828075875       33.4425890476
 Au         7.1933535395        4.4378075672       33.4422454094
 Au         7.1933146932        7.3938075470       33.4419016548
 Au        10.1493923702        1.4828464204       33.4424730660
 Au        10.1493535370        4.4378464001       33.4421294277
 Au        10.1493146906        7.3938463799       33.4417856731
 Au        13.1053923677        1.4828852532       33.4423570843
 Au        13.1053535345        4.4378852330       33.4420134460
 Au        13.1053146881        7.3938852127       33.4416696915
     183
 i =       2, E =    -5729.4044259846
 Au         0.0000997171        0.0008240710        0.0010433075
 Au         0.0000608860        2.9558240508        0.0006996872
 Au         0.0000220417        5.9118240305        0.0003559506
 Au         2.9560997146        0.0008629018        0.0009273319
 Au         2.9560608834        2.9558628816        0.0005837116
 Au         2.9560220391        5.9118628613        0.0002399750
 Au         5.9120997121        0.0009017326        0.0008113563
 Au         5.9120608809        2.9559017124        0.0004677360
 Au         5.9120220366        5.9119016921        0.0001239994
 Au         8.6700997097        0.0009379625        0.0007031490
 Au         8.6700608785        2.9559379422        0.0003595287
 Au         8.6700220343        5.9119379220        0.0000157922
 Au        11.6260997072        0.0009767933        0.0005871734
 Au        11.6260608760        2.9559767730        0.0002435531
 Au        11.6260220317        5.9119767528       -0.0001001834
 Au         1.4781622895        1.4790865117        2.0908134357
 Au         1.4781234583        4.4340864915        2.0904698154
 Au         1.4780846141        7.3900864712        2.0901260788
 Au         4.4341622870        1.4791253425        2.0906974601
 Au         4.4341234558        4.4341253223        2.0903538398
 Au         4.4340846115        7.3901253020        2.0900101032
 Au         7.1921622846        1.4791615723        2.0905892528
 Au         7.1921234535        4.4341615521        2.0902456325
 Au         7.1920846092        7.3901615318        2.0899018959
 Au        10.1481622821        1.4792004031        2.0904732772
 Au        10.1481234509        4.4342003829        2.0901296569
 Au        10.1480846066        7.3902003627        2.0897859203
 Au        13.1041622795        1.4792392339        2.0903573016
 Au        13.1041234484        4.4342392137        2.0900136813
 Au        13.1040846041        7.3902391935        2.0896699447
 Au         0.0002637087        0.0013101418        4.1810432760
 Au         0.0002248776        2.9563101216        4.1806996557
 Au         0.0001860333        5.9123101013        4.1803559192
 Au         2.9562637062        0.0013489726        4.1809273004
 Au         2.9562248750        2.9563489524        4.1805836801
 Au         2.9561860307        5.9123489321        4.1802399436
 Au         5.9122637036        0.0013878034        4.1808113248
 Au         5.9122248725        2.9563877832        4.1804677045
 Au         5.9121860282        5.9123877629        4.1801239680
 Au         8.6702637013        0.0014240332        4.1807031176
 Au         8.6702248701        2.9564240130        4.1803594973
 Au         8.6701860258        5.9124239928        4.1800157607
 Au        11.6262636987        0.0014628640        4.1805871420
 Au        11.6262248676        2.9564628438        4.1802435217
 Au        11.6261860233        5.9124628236        4.1798997851
 Au         1.4783262811        1.4795725825        6.2708134042
 Au         1.4782874499        4.4345725623        6.2704697839
 Au         1.4782486056        7.3905725420        6.2701260473
 Au         4.4343262786        1.4796114133        6.2706974286
 Au         4.4342874474        4.4346113931        6.2703538083
 Au         4.4342486031        7.3906113728        6.2700100717
 Au         7.1923262762        1.4796476431        6.2705892213
 Au         7.1922874450        4.4346476229        6.2702456010
 Au         7.1922486007        7.3906476026        6.2699018645
 Au        10.1483262737        1.4796864739        6.2704732457
 Au        10.1482874425        4.4346864537        6.2701296254
 Au        10.1482485982        7.3906864334        6.2697858889
 Au        13.1043262711        1.4797253047        6.2703572701
 Au        13.1042874400        4.4347252845        6.2700136498
 Au        13.1042485957        7.3907252642        6.2696699133
 Au         0.0004277003        0.0017962126        8.3610432446
 Au         0.0003888691        2.9567961924        8.3606996243
 Au         0.0003500248        5.9127961721        8.3603558877
 Au         2.9564276978        0.0018350434        8.3609272690
 Au         2.9563888666        2.9568350232        8.3605836487
 Au         2.9563500223        5.9128350029        8.3602399121
 Au         5.9124276952        0.0018738742        8.3608112934
 Au         5.9123888641        2.9568738540        8.3604676731
 Au         5.9123500198        5.9128738337        8.3601239365
 Au         8.6704276929        0.0019101040        8.3607030861
 Au         8.6703888617        2.9569100838        8.3603594658
 Au         8.6703500174        5.9129100636        8.3600157292
 Au        11.6264276903        0.0019489348        8.3605871105
 Au        11.6263888592        2.9569489146        8.3602434902
 Au        11.6263500149        5.9129488944        8.3598997536
 Au         1.4784902727        1.4800586533       10.4508133727
 Au         1.4784514415        4.4350586330       10.4504697524
 Au         1.4784125972        7.3910586128       10.4501260159
 Au         4.4344902701        1.4800974841       10.4506973971
 Au         4.4344514390        4.4350974638       10.4503537768
 Au         4.4344125947        7.3910974436       10.4500100403
 Au         7.1924902678        1.4801337139       10.4505891898
 Au         7.1924514366        4.4351336937       10.4502455696
 Au         7.1924125923        7.3911336734       10.4499018330
 Au        10.1484902652        1.4801725447       10.4504732142
 Au        10.1484514341        4.4351725245       10.4501295940
 Au        10.1484125898        7.3911725042       10.4497858574
 Au        13.1044902627        1.4802113755       10.4503572386
 Au        13.1044514316        4.4352113553       10.4500136184
 Au        13.1044125873        7.3912113350       10.4496698818
  N         4.8554941033        5.9132869942       12.0321653686
  N         9.5284941304        5.9153486020       12.0339818062
  N         7.1924940918        5.9363185764       12.0400710148