     183
 i =       0, E =    -5729.8109267637
 Au         0.0000000000        0.0000000000        0.0000000000
 Au         0.0000000000        2.9550000000        0.0000000000
 Au         0.0000000000        5.9110000000        0.0000000000
 Au         2.9560000000        0.0000000000        0.0000000000
 Au         2.9560000000        2.9550000000        0.0000000000
 Au         2.9560000000        5.9110000000        0.0000000000
 Au         5.9120000000        0.0000000000        0.0000000000
 Au         5.9120000000        2.9550000000        0.0000000000
 Au         5.9120000000        5.9110000000        0.0000000000
 Au         8.6700000000        0.0000000000        0.0000000000
 Au         8.6700000000        2.9550000000        0.0000000000
 Au         8.6700000000        5.9110000000        0.0000000000
 Au        11.6260000000        0.0000000000        0.0000000000
 Au        11.6260000000        2.9550000000        0.0000000000
 Au        11.6260000000        5.9110000000        0.0000000000
 Au         1.4780000000        1.4780000000        2.0900000000
 Au         1.4780000000        4.4330000000        2.0900000000
 Au         1.4780000000        7.3890000000        2.0900000000
 Au         4.4340000000        1.4780000000        2.0900000000
 Au         4.4340000000        4.4330000000        2.0900000000
 Au         4.4340000000        7.3890000000        2.0900000000
 Au         7.1920000000        1.4780000000        2.0900000000
 Au         7.1920000000        4.4330000000        2.0900000000
 Au         7.1920000000        7.3890000000        2.0900000000
 Au        10.1480000000        1.4780000000        2.0900000000
 Au        10.1480000000        4.4330000000        2.0900000000
 Au        10.1480000000        7.3890000000        2.0900000000
 Au        13.1040000000        1.4780000000        2.0900000000
 Au        13.1040000000        4.4330000000        2.0900000000
 Au        13.1040000000        7.3890000000        2.0900000000
 Au         0.0000000000        0.0000000000        4.1800000000
 Au         0.0000000000        2.9550000000        4.1800000000
 Au         0.0000000000        5.9110000000        4.1800000000
 Au         2.9560000000        0.0000000000        4.1800000000
 Au         2.9560000000        2.9550000000        4.1800000000
 Au         2.9560000000        5.9110000000        4.1800000000
 Au         5.9120000000        0.0000000000        4.1800000000
 Au         5.9120000000        2.9550000000        4.1800000000
 Au         5.9120000000        5.9110000000        4.1800000000
 Au         8.6700000000        0.0000000000        4.1800000000
 Au         8.6700000000        2.9550000000        4.1800000000
 Au         8.6700000000        5.9110000000        4.1800000000
 Au        11.6260000000        0.0000000000        4.1800000000
 Au        11.6260000000        2.9550000000        4.1800000000
 Au        11.6260000000        5.9110000000        4.1800000000
 Au         1.4780000000        1.4780000000        6.2700000000
 Au         1.4780000000        4.4330000000        6.2700000000
 Au         1.4780000000        7.3890000000        6.2700000000
 Au         4.4340000000        1.4780000000        6.2700000000
 Au         4.4340000000        4.4330000000        6.2700000000
 Au         4.4340000000        7.3890000000        6.2700000000
 Au         7.1920000000        1.4780000000        6.2700000000
 Au         7.1920000000        4.4330000000        6.2700000000
 Au         7.1920000000        7.3890000000        6.2700000000
 Au        10.1480000000        1.4780000000        6.2700000000
 Au        10.1480000000        4.4330000000        6.2700000000
 Au        10.1480000000        7.3890000000        6.2700000000
 Au        13.1040000000        1.4780000000        6.2700000000
 Au        13.1040000000        4.4330000000        6.2700000000
 Au        13.1040000000        7.3890000000        6.2700000000
 Au         0.0000000000        0.0000000000        8.3600000000
 Au         0.0000000000        2.9550000000        8.3600000000
 Au         0.0000000000        5.9110000000        8.3600000000
 Au         2.9560000000        0.0000000000        8.3600000000
 Au         2.9560000000        2.9550000000        8.3600000000
 Au         2.9560000000        5.9110000000        8.3600000000
 Au         5.9120000000        0.0000000000        8.3600000000
 Au         5.9120000000        2.9550000000        8.3600000000
 Au         5.9120000000        5.9110000000        8.3600000000
 Au         8.6700000000        0.0000000000        8.3600000000
 Au         8.6700000000        2.9550000000        8.3600000000
 Au         8.6700000000        5.9110000000        8.3600000000
 Au        11.6260000000        0.0000000000        8.3600000000
 Au        11.6260000000        2.9550000000        8.3600000000
 Au        11.6260000000        5.9110000000        8.3600000000
 Au         1.4780000000        1.4780000000       10.4500000000
 Au         1.4780000000        4.4330000000       10.4500000000
 Au         1.4780000000        7.3890000000       10.4500000000
 Au         4.4340000000        1.4780000000       10.4500000000
 Au         4.4340000000        4.4330000000       10.4500000000
 Au         4.4340000000        7.3890000000       10.4500000000
 Au         7.1920000000        1.4780000000       10.4500000000
 Au         7.1920000000        4.4330000000       10.4500000000
 Au         7.1920000000        7.3890000000       10.4500000000
 Au        10.1480000000        1.4780000000       10.4500000000
 Au        10.1480000000        4.4330000000       10.4500000000
 Au        10.1480000000        7.3890000000       10.4500000000
 Au        13.1040000000        1.4780000000       10.4500000000
 Au        13.1040000000        4.4330000000       10.4500000000
 Au        13.1040000000        7.3890000000       10.4500000000
  N         4.8554000000        5.9119000000       12.0318000000
  N         9.5280000000        5.9137000000       12.0340000000
  N         7.1920000000        5.9340000000       12.0400000000
  H         4.0750319168        5.9049488170       12.6968440618
  H        10.2939883495        5.9062142779       12.7165326945
  C         6.0099999686        5.9120523853       12.7658197974
  C         8.3750478948        5.9129627335       12.7607464959
  N         5.9788500869        5.8882515165       14.0942395685
  N         8.4047327065        5.8893877816       14.0940608972
  C         7.1943473363        5.8799164377       14.7011184903
  N         7.1912293097        5.8521058221       16.0506226582
  H         6.3086348447        5.8615539361       16.5484393650
  H         8.0709262665        5.8621389354       16.5535888097
 Au         7.3120000000        5.9340000000       21.0430000000
 Au         5.8130000000        7.4340000000       22.9920000000
 Au         8.8130000000        4.4340000000       22.9920000000
 Au         5.8130000000        4.4330000000       22.9920000000
 Au         8.8130000000        7.4340000000       22.9920000000
 Au         1.4780000000        1.4780000000       25.0820000000
 Au         1.4780000000        4.4330000000       25.0820000000
 Au         1.4780000000        7.3890000000       25.0820000000
 Au         4.4340000000        1.4780000000       25.0820000000
 Au         4.4340000000        4.4330000000       25.0820000000
 Au         4.4340000000        7.3890000000       25.0820000000
 Au         7.1920000000        1.4780000000       25.0820000000
 Au         7.1920000000        4.4330000000       25.0820000000
 Au         7.1920000000        7.3890000000       25.0820000000
 Au        10.1480000000        1.4780000000       25.0820000000
 Au        10.1480000000        4.4330000000       25.0820000000
 Au        10.1480000000        7.3890000000       25.0820000000
 Au        13.1040000000        1.4780000000       25.0820000000
 Au        13.1040000000        4.4330000000       25.0820000000
 Au        13.1040000000        7.3890000000       25.0820000000
 Au         0.0000000000        0.0000000000       27.1720000000
 Au         0.0000000000        2.9550000000       27.1720000000
 Au         0.0000000000        5.9110000000       27.1720000000
 Au         2.9560000000        0.0000000000       27.1720000000
 Au         2.9560000000        2.9550000000       27.1720000000
 Au         2.9560000000        5.9110000000       27.1720000000
 Au         5.9120000000        0.0000000000       27.1720000000
 Au         5.9120000000        2.9550000000       27.1720000000
 Au         5.9120000000        5.9110000000       27.1720000000
 Au         8.6700000000        0.0000000000       27.1720000000
 Au         8.6700000000        2.9550000000       27.1720000000
 Au         8.6700000000        5.9110000000       27.1720000000
 Au        11.6260000000        0.0000000000       27.1720000000
 Au        11.6260000000        2.9550000000       27.1720000000
 Au        11.6260000000        5.9110000000       27.1720000000
 Au         1.4780000000        1.4780000000       29.2620000000
 Au         1.4780000000        4.4330000000       29.2620000000
 Au         1.4780000000        7.3890000000       29.2620000000
 Au         4.4340000000        1.4780000000       29.2620000000
 Au         4.4340000000        4.4330000000       29.2620000000
 Au         4.4340000000        7.3890000000       29.2620000000
 Au         7.1920000000        1.4780000000       29.2620000000
 Au         7.1920000000        4.4330000000       29.2620000000
 Au         7.1920000000        7.3890000000       29.2620000000
 Au        10.1480000000        1.4780000000       29.2620000000
 Au        10.1480000000        4.4330000000       29.2620000000
 Au        10.1480000000        7.3890000000       29.2620000000
 Au        13.1040000000        1.4780000000       29.2620000000
 Au        13.1040000000        4.4330000000       29.2620000000
 Au        13.1040000000        7.3890000000       29.2620000000
 Au         0.0000000000        0.0000000000       31.3520000000
 Au         0.0000000000        2.9550000000       31.3520000000
 Au         0.0000000000        5.9110000000       31.3520000000
 Au         2.9560000000        0.0000000000       31.3520000000
 Au         2.9560000000        2.9550000000       31.3520000000
 Au         2.9560000000        5.9110000000       31.3520000000
 Au         5.9120000000        0.0000000000       31.3520000000
 Au         5.9120000000        2.9550000000       31.3520000000
 Au         5.9120000000        5.9110000000       31.3520000000
 Au         8.6700000000        0.0000000000       31.3520000000
 Au         8.6700000000        2.9550000000       31.3520000000
 Au         8.6700000000        5.9110000000       31.3520000000
 Au        11.6260000000        0.0000000000       31.3520000000
 Au        11.6260000000        2.9550000000       31.3520000000
 Au        11.6260000000        5.9110000000       31.3520000000
 Au         1.4780000000        1.4780000000       33.4420000000
 Au         1.4780000000        4.4330000000       33.4420000000
 Au         1.4780000000        7.3890000000       33.4420000000
 Au         4.4340000000        1.4780000000       33.4420000000
 Au         4.4340000000        4.4330000000       33.4420000000
 Au         4.4340000000        7.3890000000       33.4420000000
 Au         7.1920000000        1.4780000000       33.4420000000
 Au         7.1920000000        4.4330000000       33.4420000000
 Au         7.1920000000        7.3890000000       33.4420000000
 Au        10.1480000000        1.4780000000       33.4420000000
 Au        10.1480000000        4.4330000000       33.4420000000
 Au        10.1480000000        7.3890000000       33.4420000000
 Au        13.1040000000        1.4780000000       33.4420000000
 Au        13.1040000000        4.4330000000       33.4420000000
 Au        13.1040000000        7.3890000000       33.4420000000
     183
 i =       1, E =    -5729.8109267638
 Au         0.0000000000        0.0000000000        0.0000000000
 Au         0.0000000000        2.9550000000        0.0000000000
 Au         0.0000000000        5.9110000000        0.0000000000
 Au         2.9560000000        0.0000000000        0.0000000000
 Au         2.9560000000        2.9550000000        0.0000000000
 Au         2.9560000000        5.9110000000        0.0000000000
 Au         5.9120000000        0.0000000000        0.0000000000
 Au         5.9120000000        2.9550000000        0.0000000000
 Au         5.9120000000        5.9110000000        0.0000000000
 Au         8.6700000000        0.0000000000        0.0000000000
 Au         8.6700000000        2.9550000000        0.0000000000
 Au         8.6700000000        5.9110000000        0.0000000000
 Au        11.6260000000        0.0000000000        0.0000000000
 Au        11.6260000000        2.9550000000        0.0000000000
 Au        11.6260000000        5.9110000000        0.0000000000
 Au         1.4780000000        1.4780000000        2.0900000000
 Au         1.4780000000        4.4330000000        2.0900000000
 Au         1.4780000000        7.3890000000        2.0900000000
 Au         4.4340000000        1.4780000000        2.0900000000
 Au         4.4340000000        4.4330000000        2.0900000000
 Au         4.4340000000        7.3890000000        2.0900000000
 Au         7.1920000000        1.4780000000        2.0900000000
 Au         7.1920000000        4.4330000000        2.0900000000
 Au         7.1920000000        7.3890000000        2.0900000000
 Au        10.1480000000        1.4780000000        2.0900000000
 Au        10.1480000000        4.4330000000        2.0900000000
 Au        10.1480000000        7.3890000000        2.0900000000
 Au        13.1040000000        1.4780000000        2.0900000000
 Au        13.1040000000        4.4330000000        2.0900000000
 Au        13.1040000000        7.3890000000        2.0900000000
 Au         0.0000000000        0.0000000000        4.1800000000
 Au         0.0000000000        2.9550000000        4.1800000000
 Au         0.0000000000        5.9110000000        4.1800000000
 Au         2.9560000000        0.0000000000        4.1800000000
 Au         2.9560000000        2.9550000000        4.1800000000
 Au         2.9560000000        5.9110000000        4.1800000000
 Au         5.9120000000        0.0000000000        4.1800000000
 Au         5.9120000000        2.9550000000        4.1800000000
 Au         5.9120000000        5.9110000000        4.1800000000
 Au         8.6700000000        0.0000000000        4.1800000000
 Au         8.6700000000        2.9550000000        4.1800000000
 Au         8.6700000000        5.9110000000        4.1800000000
 Au        11.6260000000        0.0000000000        4.1800000000
 Au        11.6260000000        2.9550000000        4.1800000000
 Au        11.6260000000        5.9110000000        4.1800000000
 Au         1.4780000000        1.4780000000        6.2700000000
 Au         1.4780000000        4.4330000000        6.2700000000
 Au         1.4780000000        7.3890000000        6.2700000000
 Au         4.4340000000        1.4780000000        6.2700000000
 Au         4.4340000000        4.4330000000        6.2700000000
 Au         4.4340000000        7.3890000000        6.2700000000
 Au         7.1920000000        1.4780000000        6.2700000000
 Au         7.1920000000        4.4330000000        6.2700000000
 Au         7.1920000000        7.3890000000        6.2700000000
 Au        10.1480000000        1.4780000000        6.2700000000
 Au        10.1480000000        4.4330000000        6.2700000000
 Au        10.1480000000        7.3890000000        6.2700000000
 Au        13.1040000000        1.4780000000        6.2700000000
 Au        13.1040000000        4.4330000000        6.2700000000
 Au        13.1040000000        7.3890000000        6.2700000000
 Au         0.0000000000        0.0000000000        8.3600000000
 Au         0.0000000000        2.9550000000        8.3600000000
 Au         0.0000000000        5.9110000000        8.3600000000
 Au         2.9560000000        0.0000000000        8.3600000000
 Au         2.9560000000        2.9550000000        8.3600000000
 Au         2.9560000000        5.9110000000        8.3600000000
 Au         5.9120000000        0.0000000000        8.3600000000
 Au         5.9120000000        2.9550000000        8.3600000000
 Au         5.9120000000        5.9110000000        8.3600000000
 Au         8.6700000000        0.0000000000        8.3600000000
 Au         8.6700000000        2.9550000000        8.3600000000
 Au         8.6700000000        5.9110000000        8.3600000000
 Au        11.6260000000        0.0000000000        8.3600000000
 Au        11.6260000000        2.9550000000        8.3600000000
 Au        11.6260000000        5.9110000000        8.3600000000
 Au         1.4780000000        1.4780000000       10.4500000000
 Au         1.4780000000        4.4330000000       10.4500000000
 Au         1.4780000000        7.3890000000       10.4500000000
 Au         4.4340000000        1.4780000000       10.4500000000
 Au         4.4340000000        4.4330000000       10.4500000000
 Au         4.4340000000        7.3890000000       10.4500000000
 Au         7.1920000000        1.4780000000       10.4500000000
 Au         7.1920000000        4.4330000000       10.4500000000
 Au         7.1920000000        7.3890000000       10.4500000000
 Au        10.1480000000        1.4780000000       10.4500000000
 Au        10.1480000000        4.4330000000       10.4500000000
 Au        10.1480000000        7.3890000000       10.4500000000
 Au        13.1040000000        1.4780000000       10.4500000000
 Au        13.1040000000        4.4330000000       10.4500000000
 Au        13.1040000000        7.3890000000       10.4500000000
  N         4.8554000000        5.9119000000       12.0318000000
  N         9.5280000000        5.9137000000       12.0340000000
  N         7.1920000000        5.9340000000       12.0400000000
  H         4.0750319168        5.9049488170       12.6968440618
  H        10.2939883495        5.9062142779       12.7165326945
  C         6.0099999686        5.9120523853       12.7658197974
  C         8.3750478948        5.9129627335       12.7607464959
  N         5.9788500869        5.8882515165       14.0942395685
  N         8.4047327065        5.8893877816       14.0940608972
  C         7.1943473363        5.8799164377       14.7011184903
  N         7.1912293097        5.8521058221       16.0506226582
  H         6.3086348447        5.8615539361       16.5484393650
  H         8.0709262665        5.8621389354       16.5535888097
 Au         7.3120000000        5.9340000000       21.0430000000
 Au         5.8130000000        7.4340000000       22.9920000000
 Au         8.8130000000        4.4340000000       22.9920000000
 Au         5.8130000000        4.4330000000       22.9920000000
 Au         8.8130000000        7.4340000000       22.9920000000
 Au         1.4780000000        1.4780000000       25.0820000000
 Au         1.4780000000        4.4330000000       25.0820000000
 Au         1.4780000000        7.3890000000       25.0820000000
 Au         4.4340000000        1.4780000000       25.0820000000
 Au         4.4340000000        4.4330000000       25.0820000000
 Au         4.4340000000        7.3890000000       25.0820000000
 Au         7.1920000000        1.4780000000       25.0820000000
 Au         7.1920000000        4.4330000000       25.0820000000
 Au         7.1920000000        7.3890000000       25.0820000000
 Au        10.1480000000        1.4780000000       25.0820000000
 Au        10.1480000000        4.4330000000       25.0820000000
 Au        10.1480000000        7.3890000000       25.0820000000
 Au        13.1040000000        1.4780000000       25.0820000000
 Au        13.1040000000        4.4330000000       25.0820000000
 Au        13.1040000000        7.3890000000       25.0820000000
 Au         0.0000000000        0.0000000000       27.1720000000
 Au         0.0000000000        2.9550000000       27.1720000000
 Au         0.0000000000        5.9110000000       27.1720000000
 Au         2.9560000000        0.0000000000       27.1720000000
 Au         2.9560000000        2.9550000000       27.1720000000
 Au         2.9560000000        5.9110000000       27.1720000000
 Au         5.9120000000        0.0000000000       27.1720000000
 Au         5.9120000000        2.9550000000       27.1720000000
 Au         5.9120000000        5.9110000000       27.1720000000
 Au         8.6700000000        0.0000000000       27.1720000000
 Au         8.6700000000        2.9550000000       27.1720000000
 Au         8.6700000000        5.9110000000       27.1720000000
 Au        11.6260000000        0.0000000000       27.1720000000
 Au        11.6260000000        2.9550000000       27.1720000000
 Au        11.6260000000        5.9110000000       27.1720000000
 Au         1.4780000000        1.4780000000       29.2620000000
 Au         1.4780000000        4.4330000000       29.2620000000
 Au         1.4780000000        7.3890000000       29.2620000000
 Au         4.4340000000        1.4780000000       29.2620000000
 Au         4.4340000000        4.4330000000       29.2620000000
 Au         4.4340000000        7.3890000000       29.2620000000
 Au         7.1920000000        1.4780000000       29.2620000000
 Au         7.1920000000        4.4330000000       29.2620000000
 Au         7.1920000000        7.3890000000       29.2620000000
 Au        10.1480000000        1.4780000000       29.2620000000
 Au        10.1480000000        4.4330000000       29.2620000000
 Au        10.1480000000        7.3890000000       29.2620000000
 Au        13.1040000000        1.4780000000       29.2620000000
 Au        13.1040000000        4.4330000000       29.2620000000
 Au        13.1040000000        7.3890000000       29.2620000000
 Au         0.0000000000        0.0000000000       31.3520000000
 Au         0.0000000000        2.9550000000       31.3520000000
 Au         0.0000000000        5.9110000000       31.3520000000
 Au         2.9560000000        0.0000000000       31.3520000000
 Au         2.9560000000        2.9550000000       31.3520000000
 Au         2.9560000000        5.9110000000       31.3520000000
 Au         5.9120000000        0.0000000000       31.3520000000
 Au         5.9120000000        2.9550000000       31.3520000000
 Au         5.9120000000        5.9110000000       31.3520000000
 Au         8.6700000000        0.0000000000       31.3520000000
 Au         8.6700000000        2.9550000000       31.3520000000
 Au         8.6700000000        5.9110000000       31.3520000000
 Au        11.6260000000        0.0000000000       31.3520000000
 Au        11.6260000000        2.9550000000       31.3520000000
 Au        11.6260000000        5.9110000000       31.3520000000
 Au         1.4780000000        1.4780000000       33.4420000000
 Au         1.4780000000        4.4330000000       33.4420000000
 Au         1.4780000000        7.3890000000       33.4420000000
 Au         4.4340000000        1.4780000000       33.4420000000
 Au         4.4340000000        4.4330000000       33.4420000000
 Au         4.4340000000        7.3890000000       33.4420000000
 Au         7.1920000000        1.4780000000       33.4420000000
 Au         7.1920000000        4.4330000000       33.4420000000
 Au         7.1920000000        7.3890000000       33.4420000000
 Au        10.1480000000        1.4780000000       33.4420000000
 Au        10.1480000000        4.4330000000       33.4420000000
 Au        10.1480000000        7.3890000000       33.4420000000
 Au        13.1040000000        1.4780000000       33.4420000000
 Au        13.1040000000        4.4330000000       33.4420000000
 Au        13.1040000000        7.3890000000       33.4420000000
     183
 i =       2, E =    -5729.8109267639
 Au         0.0000000000        0.0000000000        0.0000000000
 Au         0.0000000000        2.9550000000        0.0000000000
 Au         0.0000000000        5.9110000000        0.0000000000
 Au         2.9560000000        0.0000000000        0.0000000000
 Au         2.9560000000        2.9550000000        0.0000000000
 Au         2.9560000000        5.9110000000        0.0000000000
 Au         5.9120000000        0.0000000000        0.0000000000
 Au         5.9120000000        2.9550000000        0.0000000000
 Au         5.9120000000        5.9110000000        0.0000000000
 Au         8.6700000000        0.0000000000        0.0000000000
 Au         8.6700000000        2.9550000000        0.0000000000
 Au         8.6700000000        5.9110000000        0.0000000000
 Au        11.6260000000        0.0000000000        0.0000000000
 Au        11.6260000000        2.9550000000        0.0000000000
 Au        11.6260000000        5.9110000000        0.0000000000
 Au         1.4780000000        1.4780000000        2.0900000000
 Au         1.4780000000        4.4330000000        2.0900000000
 Au         1.4780000000        7.3890000000        2.0900000000
 Au         4.4340000000        1.4780000000        2.0900000000
 Au         4.4340000000        4.4330000000        2.0900000000
 Au         4.4340000000        7.3890000000        2.0900000000
 Au         7.1920000000        1.4780000000        2.0900000000
 Au         7.1920000000        4.4330000000        2.0900000000
 Au         7.1920000000        7.3890000000        2.0900000000
 Au        10.1480000000        1.4780000000        2.0900000000
 Au        10.1480000000        4.4330000000        2.0900000000
 Au        10.1480000000        7.3890000000        2.0900000000
 Au        13.1040000000        1.4780000000        2.0900000000
 Au        13.1040000000        4.4330000000        2.0900000000
 Au        13.1040000000        7.3890000000        2.0900000000
 Au         0.0000000000        0.0000000000        4.1800000000
 Au         0.0000000000        2.9550000000        4.1800000000
 Au         0.0000000000        5.9110000000        4.1800000000
 Au         2.9560000000        0.0000000000        4.1800000000
 Au         2.9560000000        2.9550000000        4.1800000000
 Au         2.9560000000        5.9110000000        4.1800000000
 Au         5.9120000000        0.0000000000        4.1800000000
 Au         5.9120000000        2.9550000000        4.1800000000
 Au         5.9120000000        5.9110000000        4.1800000000
 Au         8.6700000000        0.0000000000        4.1800000000
 Au         8.6700000000        2.9550000000        4.1800000000
 Au         8.6700000000        5.9110000000        4.1800000000
 Au        11.6260000000        0.0000000000        4.1800000000
 Au        11.6260000000        2.9550000000        4.1800000000
 Au        11.6260000000        5.9110000000        4.1800000000
 Au         1.4780000000        1.4780000000        6.2700000000
 Au         1.4780000000        4.4330000000        6.2700000000
 Au         1.4780000000        7.3890000000        6.2700000000
 Au         4.4340000000        1.4780000000        6.2700000000
 Au         4.4340000000        4.4330000000        6.2700000000
 Au         4.4340000000        7.3890000000        6.2700000000
 Au         7.1920000000        1.4780000000        6.2700000000
 Au         7.1920000000        4.4330000000        6.2700000000
 Au         7.1920000000        7.3890000000        6.2700000000
 Au        10.1480000000        1.4780000000        6.2700000000
 Au        10.1480000000        4.4330000000        6.2700000000
 Au        10.1480000000        7.3890000000        6.2700000000
 Au        13.1040000000        1.4780000000        6.2700000000
 Au        13.1040000000        4.4330000000        6.2700000000
 Au        13.1040000000        7.3890000000        6.2700000000
 Au         0.0000000000        0.0000000000        8.3600000000
 Au         0.0000000000        2.9550000000        8.3600000000
 Au         0.0000000000        5.9110000000        8.3600000000
 Au         2.9560000000        0.0000000000        8.3600000000
 Au         2.9560000000        2.9550000000        8.3600000000
 Au         2.9560000000        5.9110000000        8.3600000000
 Au         5.9120000000        0.0000000000        8.3600000000
 Au         5.9120000000        2.9550000000        8.3600000000
 Au         5.9120000000        5.9110000000        8.3600000000
 Au         8.6700000000        0.0000000000        8.3600000000
 Au         8.6700000000        2.9550000000        8.3600000000
 Au         8.6700000000        5.9110000000        8.3600000000
 Au        11.6260000000        0.0000000000        8.3600000000
 Au        11.6260000000        2.9550000000        8.3600000000
 Au        11.6260000000        5.9110000000        8.3600000000
 Au         1.4780000000        1.4780000000       10.4500000000
 Au         1.4780000000        4.4330000000       10.4500000000
 Au         1.4780000000        7.3890000000       10.4500000000
 Au         4.4340000000        1.4780000000       10.4500000000
 Au         4.4340000000        4.4330000000       10.4500000000
 Au         4.4340000000        7.3890000000       10.4500000000
 Au         7.1920000000        1.4780000000       10.4500000000
 Au         7.1920000000        4.4330000000       10.4500000000
 Au         7.1920000000        7.3890000000       10.4500000000
 Au        10.1480000000        1.4780000000       10.4500000000
 Au        10.1480000000        4.4330000000       10.4500000000
 Au        10.1480000000        7.3890000000       10.4500000000
 Au        13.1040000000        1.4780000000       10.4500000000
 Au        13.1040000000        4.4330000000       10.4500000000
 Au        13.1040000000        7.3890000000       10.4500000000
  N         4.8554000000        5.9119000000       12.0318000000
  N         9.5280000000        5.9137000000       12.0340000000
  N         7.1920000000        5.9340000000       12.0400000000