 # Version information for this restart file 
 # current date 2024-01-11 14:56:36.943
 # current working dir /gpfs/home/cahart/transport/melamine/au_from-h2/ci-neb/ts1/dft_leads-sz_tip-dzvp_surf-dzvp_kpoints-2-4-20_replicas-5
 # Program compiled at                              Thu 21 Sep 19:20:17 BST 2023
 # Program compiled on                                           hx1-c12-login-1
 # Program compiled for                                                    local
 # Source code revision number                                       git:5518aa6
 &GLOBAL
   EXTENDED_FFT_LENGTHS  T
   PRINT_LEVEL  MEDIUM
   PROJECT_NAME 2_dft_wfn-r-0
   OUTPUT_FILE_NAME 2_dft_wfn-r-0.out
   RUN_TYPE  BAND
 &END GLOBAL
 &MOTION
   &CONSTRAINT
     &FIXED_ATOMS
       LIST  1..93 104..183
     &END FIXED_ATOMS
   &END CONSTRAINT
   &BAND
     NPROC_REP  64
     BAND_TYPE  CI-NEB
     NUMBER_OF_REPLICA  5
     K_SPRING     5.0000000000000003E-02
     &CI_NEB
       NSTEPS_IT  5
     &END CI_NEB
     &OPTIMIZE_BAND
       OPT_TYPE  DIIS
       &DIIS
         MAX_STEPS  1000
       &END DIIS
     &END OPTIMIZE_BAND
     &REPLICA
       &COORD
             0.0000000000000000E+00    0.0000000000000000E+00    0.0000000000000000E+00
             0.0000000000000000E+00    2.9550000000000045E+00    0.0000000000000000E+00
             0.0000000000000000E+00    5.9110000000000165E+00    0.0000000000000000E+00
             2.9560000000000022E+00    0.0000000000000000E+00    0.0000000000000000E+00
             2.9560000000000022E+00    2.9550000000000045E+00    0.0000000000000000E+00
             2.9560000000000022E+00    5.9110000000000165E+00    0.0000000000000000E+00
             5.9120000000000044E+00    0.0000000000000000E+00    0.0000000000000000E+00
             5.9120000000000044E+00    2.9550000000000045E+00    0.0000000000000000E+00
             5.9120000000000044E+00    5.9110000000000165E+00    0.0000000000000000E+00
             8.6700000000000035E+00    0.0000000000000000E+00    0.0000000000000000E+00
             8.6700000000000035E+00    2.9550000000000045E+00    0.0000000000000000E+00
             8.6700000000000035E+00    5.9110000000000165E+00    0.0000000000000000E+00
             1.1626000000000023E+01    0.0000000000000000E+00    0.0000000000000000E+00
             1.1626000000000023E+01    2.9550000000000045E+00    0.0000000000000000E+00
             1.1626000000000023E+01    5.9110000000000165E+00    0.0000000000000000E+00
             1.4780000000000011E+00    1.4780000000000011E+00    2.0900000000000030E+00
             1.4780000000000011E+00    4.4330000000000060E+00    2.0900000000000030E+00
             1.4780000000000011E+00    7.3890000000000118E+00    2.0900000000000030E+00
             4.4340000000000011E+00    1.4780000000000011E+00    2.0900000000000030E+00
             4.4340000000000011E+00    4.4330000000000060E+00    2.0900000000000030E+00
             4.4340000000000011E+00    7.3890000000000118E+00    2.0900000000000030E+00
             7.1920000000000019E+00    1.4780000000000011E+00    2.0900000000000030E+00
             7.1920000000000019E+00    4.4330000000000060E+00    2.0900000000000030E+00
             7.1920000000000019E+00    7.3890000000000118E+00    2.0900000000000030E+00
             1.0148000000000030E+01    1.4780000000000011E+00    2.0900000000000030E+00
             1.0148000000000030E+01    4.4330000000000060E+00    2.0900000000000030E+00
             1.0148000000000030E+01    7.3890000000000118E+00    2.0900000000000030E+00
             1.3104000000000021E+01    1.4780000000000011E+00    2.0900000000000030E+00
             1.3104000000000021E+01    4.4330000000000060E+00    2.0900000000000030E+00
             1.3104000000000021E+01    7.3890000000000118E+00    2.0900000000000030E+00
             0.0000000000000000E+00    0.0000000000000000E+00    4.1800000000000059E+00
             0.0000000000000000E+00    2.9550000000000045E+00    4.1800000000000059E+00
             0.0000000000000000E+00    5.9110000000000165E+00    4.1800000000000059E+00
             2.9560000000000022E+00    0.0000000000000000E+00    4.1800000000000059E+00
             2.9560000000000022E+00    2.9550000000000045E+00    4.1800000000000059E+00
             2.9560000000000022E+00    5.9110000000000165E+00    4.1800000000000059E+00
             5.9120000000000044E+00    0.0000000000000000E+00    4.1800000000000059E+00
             5.9120000000000044E+00    2.9550000000000045E+00    4.1800000000000059E+00
             5.9120000000000044E+00    5.9110000000000165E+00    4.1800000000000059E+00
             8.6700000000000035E+00    0.0000000000000000E+00    4.1800000000000059E+00
             8.6700000000000035E+00    2.9550000000000045E+00    4.1800000000000059E+00
             8.6700000000000035E+00    5.9110000000000165E+00    4.1800000000000059E+00
             1.1626000000000023E+01    0.0000000000000000E+00    4.1800000000000059E+00
             1.1626000000000023E+01    2.9550000000000045E+00    4.1800000000000059E+00
             1.1626000000000023E+01    5.9110000000000165E+00    4.1800000000000059E+00
             1.4780000000000011E+00    1.4780000000000011E+00    6.2700000000000093E+00
             1.4780000000000011E+00    4.4330000000000060E+00    6.2700000000000093E+00
             1.4780000000000011E+00    7.3890000000000118E+00    6.2700000000000093E+00
             4.4340000000000011E+00    1.4780000000000011E+00    6.2700000000000093E+00
             4.4340000000000011E+00    4.4330000000000060E+00    6.2700000000000093E+00
             4.4340000000000011E+00    7.3890000000000118E+00    6.2700000000000093E+00
             7.1920000000000019E+00    1.4780000000000011E+00    6.2700000000000093E+00
             7.1920000000000019E+00    4.4330000000000060E+00    6.2700000000000093E+00
             7.1920000000000019E+00    7.3890000000000118E+00    6.2700000000000093E+00
             1.0148000000000030E+01    1.4780000000000011E+00    6.2700000000000093E+00
             1.0148000000000030E+01    4.4330000000000060E+00    6.2700000000000093E+00
             1.0148000000000030E+01    7.3890000000000118E+00    6.2700000000000093E+00
             1.3104000000000021E+01    1.4780000000000011E+00    6.2700000000000093E+00
             1.3104000000000021E+01    4.4330000000000060E+00    6.2700000000000093E+00
             1.3104000000000021E+01    7.3890000000000118E+00    6.2700000000000093E+00
             0.0000000000000000E+00    0.0000000000000000E+00    8.3600000000000119E+00
             0.0000000000000000E+00    2.9550000000000045E+00    8.3600000000000119E+00
             0.0000000000000000E+00    5.9110000000000165E+00    8.3600000000000119E+00
             2.9560000000000022E+00    0.0000000000000000E+00    8.3600000000000119E+00
             2.9560000000000022E+00    2.9550000000000045E+00    8.3600000000000119E+00
             2.9560000000000022E+00    5.9110000000000165E+00    8.3600000000000119E+00
             5.9120000000000044E+00    0.0000000000000000E+00    8.3600000000000119E+00
             5.9120000000000044E+00    2.9550000000000045E+00    8.3600000000000119E+00
             5.9120000000000044E+00    5.9110000000000165E+00    8.3600000000000119E+00
             8.6700000000000035E+00    0.0000000000000000E+00    8.3600000000000119E+00
             8.6700000000000035E+00    2.9550000000000045E+00    8.3600000000000119E+00
             8.6700000000000035E+00    5.9110000000000165E+00    8.3600000000000119E+00
             1.1626000000000023E+01    0.0000000000000000E+00    8.3600000000000119E+00
             1.1626000000000023E+01    2.9550000000000045E+00    8.3600000000000119E+00
             1.1626000000000023E+01    5.9110000000000165E+00    8.3600000000000119E+00
             1.4780000000000011E+00    1.4780000000000011E+00    1.0450000000000005E+01
             1.4780000000000011E+00    4.4330000000000060E+00    1.0450000000000005E+01
             1.4780000000000011E+00    7.3890000000000118E+00    1.0450000000000005E+01
             4.4340000000000011E+00    1.4780000000000011E+00    1.0450000000000005E+01
             4.4340000000000011E+00    4.4330000000000060E+00    1.0450000000000005E+01
             4.4340000000000011E+00    7.3890000000000118E+00    1.0450000000000005E+01
             7.1920000000000019E+00    1.4780000000000011E+00    1.0450000000000005E+01
             7.1920000000000019E+00    4.4330000000000060E+00    1.0450000000000005E+01
             7.1920000000000019E+00    7.3890000000000118E+00    1.0450000000000005E+01
             1.0148000000000030E+01    1.4780000000000011E+00    1.0450000000000005E+01
             1.0148000000000030E+01    4.4330000000000060E+00    1.0450000000000005E+01
             1.0148000000000030E+01    7.3890000000000118E+00    1.0450000000000005E+01
             1.3104000000000021E+01    1.4780000000000011E+00    1.0450000000000005E+01
             1.3104000000000021E+01    4.4330000000000060E+00    1.0450000000000005E+01
             1.3104000000000021E+01    7.3890000000000118E+00    1.0450000000000005E+01
             4.8554000000000110E+00    5.9119000000000090E+00    1.2031800000000020E+01
             9.5280000000000236E+00    5.9137000000000155E+00    1.2034000000000022E+01
             7.1920000000000019E+00    5.9340000000000153E+00    1.2040000000000010E+01
             4.0750319168000040E+00    5.9049488170000082E+00    1.2696844061800027E+01
             1.0293988349500015E+01    5.9062142779000109E+00    1.2716532694500019E+01
             6.0099999686000158E+00    5.9120523853000160E+00    1.2765819797400029E+01
             8.3750478948000122E+00    5.9129627335000086E+00    1.2760746495900024E+01
             5.9788500869000147E+00    5.8882515165000067E+00    1.4094239568500019E+01
             8.4047327065000079E+00    5.8893877816000098E+00    1.4094060897200013E+01
             7.1943473363000141E+00    5.8799164377000146E+00    1.4701118490300029E+01
             7.1912293097000086E+00    5.8521058221000102E+00    1.6050622658200016E+01
             6.3086348447000127E+00    5.8615539361000115E+00    1.6548439365000014E+01
             8.0709262665000097E+00    5.8621389354000106E+00    1.6553588809700024E+01
             7.3120000000000047E+00    5.9340000000000153E+00    2.1043000000000028E+01
             5.8130000000000113E+00    7.4340000000000170E+00    2.2992000000000054E+01
             8.8130000000000095E+00    4.4340000000000011E+00    2.2992000000000054E+01
             5.8130000000000113E+00    4.4330000000000060E+00    2.2992000000000054E+01
             8.8130000000000095E+00    7.4340000000000170E+00    2.2992000000000054E+01
             1.4780000000000011E+00    1.4780000000000011E+00    2.5082000000000036E+01
             1.4780000000000011E+00    4.4330000000000060E+00    2.5082000000000036E+01
             1.4780000000000011E+00    7.3890000000000118E+00    2.5082000000000036E+01
             4.4340000000000011E+00    1.4780000000000011E+00    2.5082000000000036E+01
             4.4340000000000011E+00    4.4330000000000060E+00    2.5082000000000036E+01
             4.4340000000000011E+00    7.3890000000000118E+00    2.5082000000000036E+01
             7.1920000000000019E+00    1.4780000000000011E+00    2.5082000000000036E+01
             7.1920000000000019E+00    4.4330000000000060E+00    2.5082000000000036E+01
             7.1920000000000019E+00    7.3890000000000118E+00    2.5082000000000036E+01
             1.0148000000000030E+01    1.4780000000000011E+00    2.5082000000000036E+01
             1.0148000000000030E+01    4.4330000000000060E+00    2.5082000000000036E+01
             1.0148000000000030E+01    7.3890000000000118E+00    2.5082000000000036E+01
             1.3104000000000021E+01    1.4780000000000011E+00    2.5082000000000036E+01
             1.3104000000000021E+01    4.4330000000000060E+00    2.5082000000000036E+01
             1.3104000000000021E+01    7.3890000000000118E+00    2.5082000000000036E+01
             0.0000000000000000E+00    0.0000000000000000E+00    2.7172000000000061E+01
             0.0000000000000000E+00    2.9550000000000045E+00    2.7172000000000061E+01
             0.0000000000000000E+00    5.9110000000000165E+00    2.7172000000000061E+01
             2.9560000000000022E+00    0.0000000000000000E+00    2.7172000000000061E+01
             2.9560000000000022E+00    2.9550000000000045E+00    2.7172000000000061E+01
             2.9560000000000022E+00    5.9110000000000165E+00    2.7172000000000061E+01
             5.9120000000000044E+00    0.0000000000000000E+00    2.7172000000000061E+01
             5.9120000000000044E+00    2.9550000000000045E+00    2.7172000000000061E+01
             5.9120000000000044E+00    5.9110000000000165E+00    2.7172000000000061E+01
             8.6700000000000035E+00    0.0000000000000000E+00    2.7172000000000061E+01
             8.6700000000000035E+00    2.9550000000000045E+00    2.7172000000000061E+01
             8.6700000000000035E+00    5.9110000000000165E+00    2.7172000000000061E+01
             1.1626000000000023E+01    0.0000000000000000E+00    2.7172000000000061E+01
             1.1626000000000023E+01    2.9550000000000045E+00    2.7172000000000061E+01
             1.1626000000000023E+01    5.9110000000000165E+00    2.7172000000000061E+01
             1.4780000000000011E+00    1.4780000000000011E+00    2.9262000000000079E+01
             1.4780000000000011E+00    4.4330000000000060E+00    2.9262000000000079E+01
             1.4780000000000011E+00    7.3890000000000118E+00    2.9262000000000079E+01
             4.4340000000000011E+00    1.4780000000000011E+00    2.9262000000000079E+01
             4.4340000000000011E+00    4.4330000000000060E+00    2.9262000000000079E+01
             4.4340000000000011E+00    7.3890000000000118E+00    2.9262000000000079E+01
             7.1920000000000019E+00    1.4780000000000011E+00    2.9262000000000079E+01
             7.1920000000000019E+00    4.4330000000000060E+00    2.9262000000000079E+01
             7.1920000000000019E+00    7.3890000000000118E+00    2.9262000000000079E+01
             1.0148000000000030E+01    1.4780000000000011E+00    2.9262000000000079E+01
             1.0148000000000030E+01    4.4330000000000060E+00    2.9262000000000079E+01
             1.0148000000000030E+01    7.3890000000000118E+00    2.9262000000000079E+01
             1.3104000000000021E+01    1.4780000000000011E+00    2.9262000000000079E+01
             1.3104000000000021E+01    4.4330000000000060E+00    2.9262000000000079E+01
             1.3104000000000021E+01    7.3890000000000118E+00    2.9262000000000079E+01
             0.0000000000000000E+00    0.0000000000000000E+00    3.1352000000000029E+01
             0.0000000000000000E+00    2.9550000000000045E+00    3.1352000000000029E+01
             0.0000000000000000E+00    5.9110000000000165E+00    3.1352000000000029E+01
             2.9560000000000022E+00    0.0000000000000000E+00    3.1352000000000029E+01
             2.9560000000000022E+00    2.9550000000000045E+00    3.1352000000000029E+01
             2.9560000000000022E+00    5.9110000000000165E+00    3.1352000000000029E+01
             5.9120000000000044E+00    0.0000000000000000E+00    3.1352000000000029E+01
             5.9120000000000044E+00    2.9550000000000045E+00    3.1352000000000029E+01
             5.9120000000000044E+00    5.9110000000000165E+00    3.1352000000000029E+01
             8.6700000000000035E+00    0.0000000000000000E+00    3.1352000000000029E+01
             8.6700000000000035E+00    2.9550000000000045E+00    3.1352000000000029E+01
             8.6700000000000035E+00    5.9110000000000165E+00    3.1352000000000029E+01
             1.1626000000000023E+01    0.0000000000000000E+00    3.1352000000000029E+01
             1.1626000000000023E+01    2.9550000000000045E+00    3.1352000000000029E+01
             1.1626000000000023E+01    5.9110000000000165E+00    3.1352000000000029E+01
             1.4780000000000011E+00    1.4780000000000011E+00    3.3442000000000057E+01
             1.4780000000000011E+00    4.4330000000000060E+00    3.3442000000000057E+01
             1.4780000000000011E+00    7.3890000000000118E+00    3.3442000000000057E+01
             4.4340000000000011E+00    1.4780000000000011E+00    3.3442000000000057E+01
             4.4340000000000011E+00    4.4330000000000060E+00    3.3442000000000057E+01
             4.4340000000000011E+00    7.3890000000000118E+00    3.3442000000000057E+01
             7.1920000000000019E+00    1.4780000000000011E+00    3.3442000000000057E+01
             7.1920000000000019E+00    4.4330000000000060E+00    3.3442000000000057E+01
             7.1920000000000019E+00    7.3890000000000118E+00    3.3442000000000057E+01
             1.0148000000000030E+01    1.4780000000000011E+00    3.3442000000000057E+01
             1.0148000000000030E+01    4.4330000000000060E+00    3.3442000000000057E+01
             1.0148000000000030E+01    7.3890000000000118E+00    3.3442000000000057E+01
             1.3104000000000021E+01    1.4780000000000011E+00    3.3442000000000057E+01
             1.3104000000000021E+01    4.4330000000000060E+00    3.3442000000000057E+01
             1.3104000000000021E+01    7.3890000000000118E+00    3.3442000000000057E+01
       &END COORD
       &VELOCITY
             0.0000000000000000E+00    0.0000000000000000E+00    0.0000000000000000E+00
             0.0000000000000000E+00    0.0000000000000000E+00    0.0000000000000000E+00
             0.0000000000000000E+00    0.0000000000000000E+00    0.0000000000000000E+00
             0.0000000000000000E+00    0.0000000000000000E+00    0.0000000000000000E+00
             0.0000000000000000E+00    0.0000000000000000E+00    0.0000000000000000E+00
             0.0000000000000000E+00    0.0000000000000000E+00    0.0000000000000000E+00
             0.0000000000000000E+00    0.0000000000000000E+00    0.0000000000000000E+00
             0.0000000000000000E+00    0.0000000000000000E+00    0.0000000000000000E+00
             0.0000000000000000E+00    0.0000000000000000E+00    0.0000000000000000E+00
             0.0000000000000000E+00    0.0000000000000000E+00    0.0000000000000000E+00
             0.0000000000000000E+00    0.0000000000000000E+00    0.0000000000000000E+00
             0.0000000000000000E+00    0.0000000000000000E+00    0.0000000000000000E+00
             0.0000000000000000E+00    0.0000000000000000E+00    0.0000000000000000E+00
             0.0000000000000000E+00    0.0000000000000000E+00    0.0000000000000000E+00
             0.0000000000000000E+00    0.0000000000000000E+00    0.0000000000000000E+00
             0.0000000000000000E+00    0.0000000000000000E+00    0.0000000000000000E+00
             0.0000000000000000E+00    0.0000000000000000E+00    0.0000000000000000E+00
             0.0000000000000000E+00    0.0000000000000000E+00    0.0000000000000000E+00
             0.0000000000000000E+00    0.0000000000000000E+00    0.0000000000000000E+00
             0.0000000000000000E+00    0.0000000000000000E+00    0.0000000000000000E+00
             0.0000000000000000E+00    0.0000000000000000E+00    0.0000000000000000E+00
             0.0000000000000000E+00    0.0000000000000000E+00    0.0000000000000000E+00
             0.0000000000000000E+00    0.0000000000000000E+00    0.0000000000000000E+00
             0.0000000000000000E+00    0.0000000000000000E+00    0.0000000000000000E+00
             0.0000000000000000E+00    0.0000000000000000E+00    0.0000000000000000E+00
             0.0000000000000000E+00    0.0000000000000000E+00    0.0000000000000000E+00
             0.0000000000000000E+00    0.0000000000000000E+00    0.0000000000000000E+00
             0.0000000000000000E+00    0.0000000000000000E+00    0.0000000000000000E+00
             0.0000000000000000E+00    0.0000000000000000E+00    0.0000000000000000E+00
             0.0000000000000000E+00    0.0000000000000000E+00    0.0000000000000000E+00
             0.0000000000000000E+00    0.0000000000000000E+00    0.0000000000000000E+00
             0.0000000000000000E+00    0.0000000000000000E+00    0.0000000000000000E+00
             0.0000000000000000E+00    0.0000000000000000E+00    0.0000000000000000E+00
             0.0000000000000000E+00    0.0000000000000000E+00    0.0000000000000000E+00
             0.0000000000000000E+00    0.0000000000000000E+00    0.0000000000000000E+00
             0.0000000000000000E+00    0.0000000000000000E+00    0.0000000000000000E+00
             0.0000000000000000E+00    0.0000000000000000E+00    0.0000000000000000E+00
             0.0000000000000000E+00    0.0000000000000000E+00    0.0000000000000000E+00
             0.0000000000000000E+00    0.0000000000000000E+00    0.0000000000000000E+00
             0.0000000000000000E+00    0.0000000000000000E+00    0.0000000000000000E+00
             0.0000000000000000E+00    0.0000000000000000E+00    0.0000000000000000E+00
             0.0000000000000000E+00    0.0000000000000000E+00    0.0000000000000000E+00
             0.0000000000000000E+00    0.0000000000000000E+00    0.0000000000000000E+00
             0.0000000000000000E+00    0.0000000000000000E+00    0.0000000000000000E+00
             0.0000000000000000E+00    0.0000000000000000E+00    0.0000000000000000E+00
             0.0000000000000000E+00    0.0000000000000000E+00    0.0000000000000000E+00
             0.0000000000000000E+00    0.0000000000000000E+00    0.0000000000000000E+00
             0.0000000000000000E+00    0.0000000000000000E+00    0.0000000000000000E+00
             0.0000000000000000E+00    0.0000000000000000E+00    0.0000000000000000E+00
             0.0000000000000000E+00    0.0000000000000000E+00    0.0000000000000000E+00
             0.0000000000000000E+00    0.0000000000000000E+00    0.0000000000000000E+00
             0.0000000000000000E+00    0.0000000000000000E+00    0.0000000000000000E+00
             0.0000000000000000E+00    0.0000000000000000E+00    0.0000000000000000E+00
             0.0000000000000000E+00    0.0000000000000000E+00    0.0000000000000000E+00
             0.0000000000000000E+00    0.0000000000000000E+00    0.0000000000000000E+00
             0.0000000000000000E+00    0.0000000000000000E+00    0.0000000000000000E+00
             0.0000000000000000E+00    0.0000000000000000E+00    0.0000000000000000E+00
             0.0000000000000000E+00    0.0000000000000000E+00    0.0000000000000000E+00
             0.0000000000000000E+00    0.0000000000000000E+00    0.0000000000000000E+00
             0.0000000000000000E+00    0.0000000000000000E+00    0.0000000000000000E+00
             0.0000000000000000E+00    0.0000000000000000E+00    0.0000000000000000E+00
             0.0000000000000000E+00    0.0000000000000000E+00    0.0000000000000000E+00
             0.0000000000000000E+00    0.0000000000000000E+00    0.0000000000000000E+00
             0.0000000000000000E+00    0.0000000000000000E+00    0.0000000000000000E+00
             0.0000000000000000E+00    0.0000000000000000E+00    0.0000000000000000E+00
             0.0000000000000000E+00    0.0000000000000000E+00    0.0000000000000000E+00
             0.0000000000000000E+00    0.0000000000000000E+00    0.0000000000000000E+00
             0.0000000000000000E+00    0.0000000000000000E+00    0.0000000000000000E+00
             0.0000000000000000E+00    0.0000000000000000E+00    0.0000000000000000E+00
             0.0000000000000000E+00    0.0000000000000000E+00    0.0000000000000000E+00
             0.0000000000000000E+00    0.0000000000000000E+00    0.0000000000000000E+00
             0.0000000000000000E+00    0.0000000000000000E+00    0.0000000000000000E+00
             0.0000000000000000E+00    0.0000000000000000E+00    0.0000000000000000E+00
             0.0000000000000000E+00    0.0000000000000000E+00    0.0000000000000000E+00
             0.0000000000000000E+00    0.0000000000000000E+00    0.0000000000000000E+00
             0.0000000000000000E+00    0.0000000000000000E+00    0.0000000000000000E+00
             0.0000000000000000E+00    0.0000000000000000E+00    0.0000000000000000E+00
             0.0000000000000000E+00    0.0000000000000000E+00    0.0000000000000000E+00
             0.0000000000000000E+00    0.0000000000000000E+00    0.0000000000000000E+00
             0.0000000000000000E+00    0.0000000000000000E+00    0.0000000000000000E+00
             0.0000000000000000E+00    0.0000000000000000E+00    0.0000000000000000E+00
             0.0000000000000000E+00    0.0000000000000000E+00    0.0000000000000000E+00
             0.0000000000000000E+00    0.0000000000000000E+00    0.0000000000000000E+00
             0.0000000000000000E+00    0.0000000000000000E+00    0.0000000000000000E+00
             0.0000000000000000E+00    0.0000000000000000E+00    0.0000000000000000E+00
             0.0000000000000000E+00    0.0000000000000000E+00    0.0000000000000000E+00
             0.0000000000000000E+00    0.0000000000000000E+00    0.0000000000000000E+00
             0.0000000000000000E+00    0.0000000000000000E+00    0.0000000000000000E+00
             0.0000000000000000E+00    0.0000000000000000E+00    0.0000000000000000E+00
             0.0000000000000000E+00    0.0000000000000000E+00    0.0000000000000000E+00
             0.0000000000000000E+00    0.0000000000000000E+00    0.0000000000000000E+00
             0.0000000000000000E+00    0.0000000000000000E+00    0.0000000000000000E+00
             0.0000000000000000E+00    0.0000000000000000E+00    0.0000000000000000E+00
             0.0000000000000000E+00    0.0000000000000000E+00    0.0000000000000000E+00
             0.0000000000000000E+00    0.0000000000000000E+00    0.0000000000000000E+00
             0.0000000000000000E+00    0.0000000000000000E+00    0.0000000000000000E+00
             0.0000000000000000E+00    0.0000000000000000E+00    0.0000000000000000E+00
             0.0000000000000000E+00    0.0000000000000000E+00    0.0000000000000000E+00
             0.0000000000000000E+00    0.0000000000000000E+00    0.0000000000000000E+00
             0.0000000000000000E+00    0.0000000000000000E+00    0.0000000000000000E+00
             0.0000000000000000E+00    0.0000000000000000E+00    0.0000000000000000E+00
             0.0000000000000000E+00    0.0000000000000000E+00    0.0000000000000000E+00
             0.0000000000000000E+00    0.0000000000000000E+00    0.0000000000000000E+00
             0.0000000000000000E+00    0.0000000000000000E+00    0.0000000000000000E+00
             0.0000000000000000E+00    0.0000000000000000E+00    0.0000000000000000E+00
             0.0000000000000000E+00    0.0000000000000000E+00    0.0000000000000000E+00
             0.0000000000000000E+00    0.0000000000000000E+00    0.0000000000000000E+00
             0.0000000000000000E+00    0.0000000000000000E+00    0.0000000000000000E+00
             0.0000000000000000E+00    0.0000000000000000E+00    0.0000000000000000E+00
             0.0000000000000000E+00    0.0000000000000000E+00    0.0000000000000000E+00
             0.0000000000000000E+00    0.0000000000000000E+00    0.0000000000000000E+00
             0.0000000000000000E+00    0.0000000000000000E+00    0.0000000000000000E+00
             0.0000000000000000E+00    0.0000000000000000E+00    0.0000000000000000E+00
             0.0000000000000000E+00    0.0000000000000000E+00    0.0000000000000000E+00
             0.0000000000000000E+00    0.0000000000000000E+00    0.0000000000000000E+00
             0.0000000000000000E+00    0.0000000000000000E+00    0.0000000000000000E+00
             0.0000000000000000E+00    0.0000000000000000E+00    0.0000000000000000E+00
             0.0000000000000000E+00    0.0000000000000000E+00    0.0000000000000000E+00
             0.0000000000000000E+00    0.0000000000000000E+00    0.0000000000000000E+00
             0.0000000000000000E+00    0.0000000000000000E+00    0.0000000000000000E+00
             0.0000000000000000E+00    0.0000000000000000E+00    0.0000000000000000E+00
             0.0000000000000000E+00    0.0000000000000000E+00    0.0000000000000000E+00
             0.0000000000000000E+00    0.0000000000000000E+00    0.0000000000000000E+00
             0.0000000000000000E+00    0.0000000000000000E+00    0.0000000000000000E+00
             0.0000000000000000E+00    0.0000000000000000E+00    0.0000000000000000E+00
             0.0000000000000000E+00    0.0000000000000000E+00    0.0000000000000000E+00
             0.0000000000000000E+00    0.0000000000000000E+00    0.0000000000000000E+00
             0.0000000000000000E+00    0.0000000000000000E+00    0.0000000000000000E+00
             0.0000000000000000E+00    0.0000000000000000E+00    0.0000000000000000E+00
             0.0000000000000000E+00    0.0000000000000000E+00    0.0000000000000000E+00
             0.0000000000000000E+00    0.0000000000000000E+00    0.0000000000000000E+00
             0.0000000000000000E+00    0.0000000000000000E+00    0.0000000000000000E+00
             0.0000000000000000E+00    0.0000000000000000E+00    0.0000000000000000E+00
             0.0000000000000000E+00    0.0000000000000000E+00    0.0000000000000000E+00
             0.0000000000000000E+00    0.0000000000000000E+00    0.0000000000000000E+00
             0.0000000000000000E+00    0.0000000000000000E+00    0.0000000000000000E+00
             0.0000000000000000E+00    0.0000000000000000E+00    0.0000000000000000E+00
             0.0000000000000000E+00    0.0000000000000000E+00    0.0000000000000000E+00
             0.0000000000000000E+00    0.0000000000000000E+00    0.0000000000000000E+00
             0.0000000000000000E+00    0.0000000000000000E+00    0.0000000000000000E+00
             0.0000000000000000E+00    0.0000000000000000E+00    0.0000000000000000E+00
             0.0000000000000000E+00    0.0000000000000000E+00    0.0000000000000000E+00
             0.0000000000000000E+00    0.0000000000000000E+00    0.0000000000000000E+00
             0.0000000000000000E+00    0.0000000000000000E+00    0.0000000000000000E+00