 # Version information for this restart file 
 # current date 2024-01-11 06:45:18.331
 # current working dir /gpfs/home/cahart/transport/melamine/au_from-h2/ci-neb/ts1/dft_leads-sz_tip-dzvp_surf-dzvp_kpoints-2-4-20_replicas-5
 # Program compiled at                              Thu 21 Sep 19:20:17 BST 2023
 # Program compiled on                                           hx1-c12-login-1
 # Program compiled for                                                    local
 # Source code revision number                                       git:5518aa6
 &GLOBAL
   EXTENDED_FFT_LENGTHS  T
   PRINT_LEVEL  MEDIUM
   PROJECT_NAME 2_dft_wfn-r-0
   OUTPUT_FILE_NAME 2_dft_wfn-r-0.out
   RUN_TYPE  BAND
 &END GLOBAL
 &MOTION
   &CONSTRAINT
     &FIXED_ATOMS
       LIST  1..93 104..183
     &END FIXED_ATOMS
   &END CONSTRAINT
   &BAND
     NPROC_REP  64
     BAND_TYPE  CI-NEB
     NUMBER_OF_REPLICA  5
     K_SPRING     5.0000000000000003E-02
     &CI_NEB
       NSTEPS_IT  5
     &END CI_NEB
     &OPTIMIZE_BAND
       OPT_TYPE  DIIS
       &DIIS
         MAX_STEPS  1000
       &END DIIS
     &END OPTIMIZE_BAND
     &REPLICA
       &COORD
             0.0000000000000000E+00    0.0000000000000000E+00    0.0000000000000000E+00
             0.0000000000000000E+00    2.9550000000000023E+00    0.0000000000000000E+00
             0.0000000000000000E+00    5.9110000000000049E+00    0.0000000000000000E+00
             2.9559999999999982E+00    0.0000000000000000E+00    0.0000000000000000E+00
             2.9559999999999982E+00    2.9550000000000023E+00    0.0000000000000000E+00
             2.9559999999999982E+00    5.9110000000000049E+00    0.0000000000000000E+00
             5.9119999999999964E+00    0.0000000000000000E+00    0.0000000000000000E+00
             5.9119999999999964E+00    2.9550000000000023E+00    0.0000000000000000E+00
             5.9119999999999964E+00    5.9110000000000049E+00    0.0000000000000000E+00
             8.6699999999999999E+00    0.0000000000000000E+00    0.0000000000000000E+00
             8.6699999999999999E+00    2.9550000000000023E+00    0.0000000000000000E+00
             8.6699999999999999E+00    5.9110000000000049E+00    0.0000000000000000E+00
             1.1626000000000001E+01    0.0000000000000000E+00    0.0000000000000000E+00
             1.1626000000000001E+01    2.9550000000000023E+00    0.0000000000000000E+00
             1.1626000000000001E+01    5.9110000000000049E+00    0.0000000000000000E+00
             1.4779999999999991E+00    1.4779999999999991E+00    2.0900000000000016E+00
             1.4779999999999991E+00    4.4330000000000025E+00    2.0900000000000016E+00
             1.4779999999999991E+00    7.3890000000000091E+00    2.0900000000000016E+00
             4.4339999999999984E+00    1.4779999999999991E+00    2.0900000000000016E+00
             4.4339999999999984E+00    4.4330000000000025E+00    2.0900000000000016E+00
             4.4339999999999984E+00    7.3890000000000091E+00    2.0900000000000016E+00
             7.1919999999999975E+00    1.4779999999999991E+00    2.0900000000000016E+00
             7.1919999999999975E+00    4.4330000000000025E+00    2.0900000000000016E+00
             7.1919999999999975E+00    7.3890000000000091E+00    2.0900000000000016E+00
             1.0148000000000010E+01    1.4779999999999991E+00    2.0900000000000016E+00
             1.0148000000000010E+01    4.4330000000000025E+00    2.0900000000000016E+00
             1.0148000000000010E+01    7.3890000000000091E+00    2.0900000000000016E+00
             1.3104000000000008E+01    1.4779999999999991E+00    2.0900000000000016E+00
             1.3104000000000008E+01    4.4330000000000025E+00    2.0900000000000016E+00
             1.3104000000000008E+01    7.3890000000000091E+00    2.0900000000000016E+00
             0.0000000000000000E+00    0.0000000000000000E+00    4.1800000000000033E+00
             0.0000000000000000E+00    2.9550000000000023E+00    4.1800000000000033E+00
             0.0000000000000000E+00    5.9110000000000049E+00    4.1800000000000033E+00
             2.9559999999999982E+00    0.0000000000000000E+00    4.1800000000000033E+00
             2.9559999999999982E+00    2.9550000000000023E+00    4.1800000000000033E+00
             2.9559999999999982E+00    5.9110000000000049E+00    4.1800000000000033E+00
             5.9119999999999964E+00    0.0000000000000000E+00    4.1800000000000033E+00
             5.9119999999999964E+00    2.9550000000000023E+00    4.1800000000000033E+00
             5.9119999999999964E+00    5.9110000000000049E+00    4.1800000000000033E+00
             8.6699999999999999E+00    0.0000000000000000E+00    4.1800000000000033E+00
             8.6699999999999999E+00    2.9550000000000023E+00    4.1800000000000033E+00
             8.6699999999999999E+00    5.9110000000000049E+00    4.1800000000000033E+00
             1.1626000000000001E+01    0.0000000000000000E+00    4.1800000000000033E+00
             1.1626000000000001E+01    2.9550000000000023E+00    4.1800000000000033E+00
             1.1626000000000001E+01    5.9110000000000049E+00    4.1800000000000033E+00
             1.4779999999999991E+00    1.4779999999999991E+00    6.2700000000000031E+00
             1.4779999999999991E+00    4.4330000000000025E+00    6.2700000000000031E+00
             1.4779999999999991E+00    7.3890000000000091E+00    6.2700000000000031E+00
             4.4339999999999984E+00    1.4779999999999991E+00    6.2700000000000031E+00
             4.4339999999999984E+00    4.4330000000000025E+00    6.2700000000000031E+00
             4.4339999999999984E+00    7.3890000000000091E+00    6.2700000000000031E+00
             7.1919999999999975E+00    1.4779999999999991E+00    6.2700000000000031E+00
             7.1919999999999975E+00    4.4330000000000025E+00    6.2700000000000031E+00
             7.1919999999999975E+00    7.3890000000000091E+00    6.2700000000000031E+00
             1.0148000000000010E+01    1.4779999999999991E+00    6.2700000000000031E+00
             1.0148000000000010E+01    4.4330000000000025E+00    6.2700000000000031E+00
             1.0148000000000010E+01    7.3890000000000091E+00    6.2700000000000031E+00
             1.3104000000000008E+01    1.4779999999999991E+00    6.2700000000000031E+00
             1.3104000000000008E+01    4.4330000000000025E+00    6.2700000000000031E+00
             1.3104000000000008E+01    7.3890000000000091E+00    6.2700000000000031E+00
             0.0000000000000000E+00    0.0000000000000000E+00    8.3600000000000065E+00
             0.0000000000000000E+00    2.9550000000000023E+00    8.3600000000000065E+00
             0.0000000000000000E+00    5.9110000000000049E+00    8.3600000000000065E+00
             2.9559999999999982E+00    0.0000000000000000E+00    8.3600000000000065E+00
             2.9559999999999982E+00    2.9550000000000023E+00    8.3600000000000065E+00
             2.9559999999999982E+00    5.9110000000000049E+00    8.3600000000000065E+00
             5.9119999999999964E+00    0.0000000000000000E+00    8.3600000000000065E+00
             5.9119999999999964E+00    2.9550000000000023E+00    8.3600000000000065E+00
             5.9119999999999964E+00    5.9110000000000049E+00    8.3600000000000065E+00
             8.6699999999999999E+00    0.0000000000000000E+00    8.3600000000000065E+00
             8.6699999999999999E+00    2.9550000000000023E+00    8.3600000000000065E+00
             8.6699999999999999E+00    5.9110000000000049E+00    8.3600000000000065E+00
             1.1626000000000001E+01    0.0000000000000000E+00    8.3600000000000065E+00
             1.1626000000000001E+01    2.9550000000000023E+00    8.3600000000000065E+00
             1.1626000000000001E+01    5.9110000000000049E+00    8.3600000000000065E+00
             1.4779999999999991E+00    1.4779999999999991E+00    1.0449999999999998E+01
             1.4779999999999991E+00    4.4330000000000025E+00    1.0449999999999998E+01
             1.4779999999999991E+00    7.3890000000000091E+00    1.0449999999999998E+01
             4.4339999999999984E+00    1.4779999999999991E+00    1.0449999999999998E+01
             4.4339999999999984E+00    4.4330000000000025E+00    1.0449999999999998E+01
             4.4339999999999984E+00    7.3890000000000091E+00    1.0449999999999998E+01
             7.1919999999999975E+00    1.4779999999999991E+00    1.0449999999999998E+01
             7.1919999999999975E+00    4.4330000000000025E+00    1.0449999999999998E+01
             7.1919999999999975E+00    7.3890000000000091E+00    1.0449999999999998E+01
             1.0148000000000010E+01    1.4779999999999991E+00    1.0449999999999998E+01
             1.0148000000000010E+01    4.4330000000000025E+00    1.0449999999999998E+01
             1.0148000000000010E+01    7.3890000000000091E+00    1.0449999999999998E+01
             1.3104000000000008E+01    1.4779999999999991E+00    1.0449999999999998E+01
             1.3104000000000008E+01    4.4330000000000025E+00    1.0449999999999998E+01
             1.3104000000000008E+01    7.3890000000000091E+00    1.0449999999999998E+01
             4.8554000000000030E+00    5.9119000000000019E+00    1.2031800000000008E+01
             9.5280000000000111E+00    5.9137000000000093E+00    1.2034000000000015E+01
             7.1919999999999975E+00    5.9340000000000108E+00    1.2039999999999997E+01
             4.0750319168000004E+00    5.9049488170000028E+00    1.2696844061800007E+01
             1.0293988349500001E+01    5.9062142779000020E+00    1.2716532694500003E+01
             6.0099999686000052E+00    5.9120523853000080E+00    1.2765819797400017E+01
             8.3750478948000016E+00    5.9129627334999997E+00    1.2760746495900007E+01
             5.9788500869000085E+00    5.8882515165000013E+00    1.4094239568500008E+01
             8.4047327065000008E+00    5.8893877816000053E+00    1.4094060897199999E+01
             7.1943473363000097E+00    5.8799164377000075E+00    1.4701118490300010E+01
             7.1912293097000033E+00    5.8521058221000031E+00    1.6050622658200005E+01
             6.3086348447000047E+00    5.8615539361000035E+00    1.6548439365000007E+01
             8.0709262665000043E+00    5.8621389354000071E+00    1.6553588809700010E+01
             7.3119999999999985E+00    5.9340000000000108E+00    2.1042999999999992E+01
             5.8130000000000006E+00    7.4340000000000117E+00    2.2992000000000012E+01
             8.8130000000000059E+00    4.4339999999999984E+00    2.2992000000000012E+01
             5.8130000000000006E+00    4.4330000000000025E+00    2.2992000000000012E+01
             8.8130000000000059E+00    7.4340000000000117E+00    2.2992000000000012E+01
             1.4779999999999991E+00    1.4779999999999991E+00    2.5082000000000011E+01
             1.4779999999999991E+00    4.4330000000000025E+00    2.5082000000000011E+01
             1.4779999999999991E+00    7.3890000000000091E+00    2.5082000000000011E+01
             4.4339999999999984E+00    1.4779999999999991E+00    2.5082000000000011E+01
             4.4339999999999984E+00    4.4330000000000025E+00    2.5082000000000011E+01
             4.4339999999999984E+00    7.3890000000000091E+00    2.5082000000000011E+01
             7.1919999999999975E+00    1.4779999999999991E+00    2.5082000000000011E+01
             7.1919999999999975E+00    4.4330000000000025E+00    2.5082000000000011E+01
             7.1919999999999975E+00    7.3890000000000091E+00    2.5082000000000011E+01
             1.0148000000000010E+01    1.4779999999999991E+00    2.5082000000000011E+01
             1.0148000000000010E+01    4.4330000000000025E+00    2.5082000000000011E+01
             1.0148000000000010E+01    7.3890000000000091E+00    2.5082000000000011E+01
             1.3104000000000008E+01    1.4779999999999991E+00    2.5082000000000011E+01
             1.3104000000000008E+01    4.4330000000000025E+00    2.5082000000000011E+01
             1.3104000000000008E+01    7.3890000000000091E+00    2.5082000000000011E+01
             0.0000000000000000E+00    0.0000000000000000E+00    2.7172000000000025E+01
             0.0000000000000000E+00    2.9550000000000023E+00    2.7172000000000025E+01
             0.0000000000000000E+00    5.9110000000000049E+00    2.7172000000000025E+01
             2.9559999999999982E+00    0.0000000000000000E+00    2.7172000000000025E+01
             2.9559999999999982E+00    2.9550000000000023E+00    2.7172000000000025E+01
             2.9559999999999982E+00    5.9110000000000049E+00    2.7172000000000025E+01
             5.9119999999999964E+00    0.0000000000000000E+00    2.7172000000000025E+01
             5.9119999999999964E+00    2.9550000000000023E+00    2.7172000000000025E+01
             5.9119999999999964E+00    5.9110000000000049E+00    2.7172000000000025E+01
             8.6699999999999999E+00    0.0000000000000000E+00    2.7172000000000025E+01
             8.6699999999999999E+00    2.9550000000000023E+00    2.7172000000000025E+01
             8.6699999999999999E+00    5.9110000000000049E+00    2.7172000000000025E+01
             1.1626000000000001E+01    0.0000000000000000E+00    2.7172000000000025E+01
             1.1626000000000001E+01    2.9550000000000023E+00    2.7172000000000025E+01
             1.1626000000000001E+01    5.9110000000000049E+00    2.7172000000000025E+01
             1.4779999999999991E+00    1.4779999999999991E+00    2.9262000000000032E+01
             1.4779999999999991E+00    4.4330000000000025E+00    2.9262000000000032E+01
             1.4779999999999991E+00    7.3890000000000091E+00    2.9262000000000032E+01
             4.4339999999999984E+00    1.4779999999999991E+00    2.9262000000000032E+01
             4.4339999999999984E+00    4.4330000000000025E+00    2.9262000000000032E+01
             4.4339999999999984E+00    7.3890000000000091E+00    2.9262000000000032E+01
             7.1919999999999975E+00    1.4779999999999991E+00    2.9262000000000032E+01
             7.1919999999999975E+00    4.4330000000000025E+00    2.9262000000000032E+01
             7.1919999999999975E+00    7.3890000000000091E+00    2.9262000000000032E+01
             1.0148000000000010E+01    1.4779999999999991E+00    2.9262000000000032E+01
             1.0148000000000010E+01    4.4330000000000025E+00    2.9262000000000032E+01
             1.0148000000000010E+01    7.3890000000000091E+00    2.9262000000000032E+01
             1.3104000000000008E+01    1.4779999999999991E+00    2.9262000000000032E+01
             1.3104000000000008E+01    4.4330000000000025E+00    2.9262000000000032E+01
             1.3104000000000008E+01    7.3890000000000091E+00    2.9262000000000032E+01
             0.0000000000000000E+00    0.0000000000000000E+00    3.1352000000000000E+01
             0.0000000000000000E+00    2.9550000000000023E+00    3.1352000000000000E+01
             0.0000000000000000E+00    5.9110000000000049E+00    3.1352000000000000E+01
             2.9559999999999982E+00    0.0000000000000000E+00    3.1352000000000000E+01
             2.9559999999999982E+00    2.9550000000000023E+00    3.1352000000000000E+01
             2.9559999999999982E+00    5.9110000000000049E+00    3.1352000000000000E+01
             5.9119999999999964E+00    0.0000000000000000E+00    3.1352000000000000E+01
             5.9119999999999964E+00    2.9550000000000023E+00    3.1352000000000000E+01
             5.9119999999999964E+00    5.9110000000000049E+00    3.1352000000000000E+01
             8.6699999999999999E+00    0.0000000000000000E+00    3.1352000000000000E+01
             8.6699999999999999E+00    2.9550000000000023E+00    3.1352000000000000E+01
             8.6699999999999999E+00    5.9110000000000049E+00    3.1352000000000000E+01
             1.1626000000000001E+01    0.0000000000000000E+00    3.1352000000000000E+01
             1.1626000000000001E+01    2.9550000000000023E+00    3.1352000000000000E+01
             1.1626000000000001E+01    5.9110000000000049E+00    3.1352000000000000E+01
             1.4779999999999991E+00    1.4779999999999991E+00    3.3442000000000029E+01
             1.4779999999999991E+00    4.4330000000000025E+00    3.3442000000000029E+01
             1.4779999999999991E+00    7.3890000000000091E+00    3.3442000000000029E+01
             4.4339999999999984E+00    1.4779999999999991E+00    3.3442000000000029E+01
             4.4339999999999984E+00    4.4330000000000025E+00    3.3442000000000029E+01
             4.4339999999999984E+00    7.3890000000000091E+00    3.3442000000000029E+01
             7.1919999999999975E+00    1.4779999999999991E+00    3.3442000000000029E+01
             7.1919999999999975E+00    4.4330000000000025E+00    3.3442000000000029E+01
             7.1919999999999975E+00    7.3890000000000091E+00    3.3442000000000029E+01
             1.0148000000000010E+01    1.4779999999999991E+00    3.3442000000000029E+01
             1.0148000000000010E+01    4.4330000000000025E+00    3.3442000000000029E+01
             1.0148000000000010E+01    7.3890000000000091E+00    3.3442000000000029E+01
             1.3104000000000008E+01    1.4779999999999991E+00    3.3442000000000029E+01
             1.3104000000000008E+01    4.4330000000000025E+00    3.3442000000000029E+01
             1.3104000000000008E+01    7.3890000000000091E+00    3.3442000000000029E+01
       &END COORD
       &VELOCITY
             0.0000000000000000E+00    0.0000000000000000E+00    0.0000000000000000E+00
             0.0000000000000000E+00    0.0000000000000000E+00    0.0000000000000000E+00
             0.0000000000000000E+00    0.0000000000000000E+00    0.0000000000000000E+00
             0.0000000000000000E+00    0.0000000000000000E+00    0.0000000000000000E+00
             0.0000000000000000E+00    0.0000000000000000E+00    0.0000000000000000E+00
             0.0000000000000000E+00    0.0000000000000000E+00    0.0000000000000000E+00
             0.0000000000000000E+00    0.0000000000000000E+00    0.0000000000000000E+00
             0.0000000000000000E+00    0.0000000000000000E+00    0.0000000000000000E+00
             0.0000000000000000E+00    0.0000000000000000E+00    0.0000000000000000E+00
             0.0000000000000000E+00    0.0000000000000000E+00    0.0000000000000000E+00
             0.0000000000000000E+00    0.0000000000000000E+00    0.0000000000000000E+00
             0.0000000000000000E+00    0.0000000000000000E+00    0.0000000000000000E+00
             0.0000000000000000E+00    0.0000000000000000E+00    0.0000000000000000E+00
             0.0000000000000000E+00    0.0000000000000000E+00    0.0000000000000000E+00
             0.0000000000000000E+00    0.0000000000000000E+00    0.0000000000000000E+00
             0.0000000000000000E+00    0.0000000000000000E+00    0.0000000000000000E+00
             0.0000000000000000E+00    0.0000000000000000E+00    0.0000000000000000E+00
             0.0000000000000000E+00    0.0000000000000000E+00    0.0000000000000000E+00
             0.0000000000000000E+00    0.0000000000000000E+00    0.0000000000000000E+00
             0.0000000000000000E+00    0.0000000000000000E+00    0.0000000000000000E+00
             0.0000000000000000E+00    0.0000000000000000E+00    0.0000000000000000E+00
             0.0000000000000000E+00    0.0000000000000000E+00    0.0000000000000000E+00
             0.0000000000000000E+00    0.0000000000000000E+00    0.0000000000000000E+00
             0.0000000000000000E+00    0.0000000000000000E+00    0.0000000000000000E+00
             0.0000000000000000E+00    0.0000000000000000E+00    0.0000000000000000E+00
             0.0000000000000000E+00    0.0000000000000000E+00    0.0000000000000000E+00
             0.0000000000000000E+00    0.0000000000000000E+00    0.0000000000000000E+00
             0.0000000000000000E+00    0.0000000000000000E+00    0.0000000000000000E+00
             0.0000000000000000E+00    0.0000000000000000E+00    0.0000000000000000E+00
             0.0000000000000000E+00    0.0000000000000000E+00    0.0000000000000000E+00
             0.0000000000000000E+00    0.0000000000000000E+00    0.0000000000000000E+00
             0.0000000000000000E+00    0.0000000000000000E+00    0.0000000000000000E+00
             0.0000000000000000E+00    0.0000000000000000E+00    0.0000000000000000E+00
             0.0000000000000000E+00    0.0000000000000000E+00    0.0000000000000000E+00
             0.0000000000000000E+00    0.0000000000000000E+00    0.0000000000000000E+00
             0.0000000000000000E+00    0.0000000000000000E+00    0.0000000000000000E+00
             0.0000000000000000E+00    0.0000000000000000E+00    0.0000000000000000E+00
             0.0000000000000000E+00    0.0000000000000000E+00    0.0000000000000000E+00
             0.0000000000000000E+00    0.0000000000000000E+00    0.0000000000000000E+00
             0.0000000000000000E+00    0.0000000000000000E+00    0.0000000000000000E+00
             0.0000000000000000E+00    0.0000000000000000E+00    0.0000000000000000E+00
             0.0000000000000000E+00    0.0000000000000000E+00    0.0000000000000000E+00
             0.0000000000000000E+00    0.0000000000000000E+00    0.0000000000000000E+00
             0.0000000000000000E+00    0.0000000000000000E+00    0.0000000000000000E+00
             0.0000000000000000E+00    0.0000000000000000E+00    0.0000000000000000E+00
             0.0000000000000000E+00    0.0000000000000000E+00    0.0000000000000000E+00
             0.0000000000000000E+00    0.0000000000000000E+00    0.0000000000000000E+00
             0.0000000000000000E+00    0.0000000000000000E+00    0.0000000000000000E+00
             0.0000000000000000E+00    0.0000000000000000E+00    0.0000000000000000E+00
             0.0000000000000000E+00    0.0000000000000000E+00    0.0000000000000000E+00
             0.0000000000000000E+00    0.0000000000000000E+00    0.0000000000000000E+00
             0.0000000000000000E+00    0.0000000000000000E+00    0.0000000000000000E+00
             0.0000000000000000E+00    0.0000000000000000E+00    0.0000000000000000E+00
             0.0000000000000000E+00    0.0000000000000000E+00    0.0000000000000000E+00
             0.0000000000000000E+00    0.0000000000000000E+00    0.0000000000000000E+00
             0.0000000000000000E+00    0.0000000000000000E+00    0.0000000000000000E+00
             0.0000000000000000E+00    0.0000000000000000E+00    0.0000000000000000E+00
             0.0000000000000000E+00    0.0000000000000000E+00    0.0000000000000000E+00
             0.0000000000000000E+00    0.0000000000000000E+00    0.0000000000000000E+00
             0.0000000000000000E+00    0.0000000000000000E+00    0.0000000000000000E+00
             0.0000000000000000E+00    0.0000000000000000E+00    0.0000000000000000E+00
             0.0000000000000000E+00    0.0000000000000000E+00    0.0000000000000000E+00
             0.0000000000000000E+00    0.0000000000000000E+00    0.0000000000000000E+00
             0.0000000000000000E+00    0.0000000000000000E+00    0.0000000000000000E+00
             0.0000000000000000E+00    0.0000000000000000E+00    0.0000000000000000E+00
             0.0000000000000000E+00    0.0000000000000000E+00    0.0000000000000000E+00
             0.0000000000000000E+00    0.0000000000000000E+00    0.0000000000000000E+00
             0.0000000000000000E+00    0.0000000000000000E+00    0.0000000000000000E+00
             0.0000000000000000E+00    0.0000000000000000E+00    0.0000000000000000E+00
             0.0000000000000000E+00    0.0000000000000000E+00    0.0000000000000000E+00
             0.0000000000000000E+00    0.0000000000000000E+00    0.0000000000000000E+00
             0.0000000000000000E+00    0.0000000000000000E+00    0.0000000000000000E+00
             0.0000000000000000E+00    0.0000000000000000E+00    0.0000000000000000E+00
             0.0000000000000000E+00    0.0000000000000000E+00    0.0000000000000000E+00
             0.0000000000000000E+00    0.0000000000000000E+00    0.0000000000000000E+00
             0.0000000000000000E+00    0.0000000000000000E+00    0.0000000000000000E+00
             0.0000000000000000E+00    0.0000000000000000E+00    0.0000000000000000E+00
             0.0000000000000000E+00    0.0000000000000000E+00    0.0000000000000000E+00
             0.0000000000000000E+00    0.0000000000000000E+00    0.0000000000000000E+00
             0.0000000000000000E+00    0.0000000000000000E+00    0.0000000000000000E+00
             0.0000000000000000E+00    0.0000000000000000E+00    0.0000000000000000E+00
             0.0000000000000000E+00    0.0000000000000000E+00    0.0000000000000000E+00
             0.0000000000000000E+00    0.0000000000000000E+00    0.0000000000000000E+00
             0.0000000000000000E+00    0.0000000000000000E+00    0.0000000000000000E+00
             0.0000000000000000E+00    0.0000000000000000E+00    0.0000000000000000E+00
             0.0000000000000000E+00    0.0000000000000000E+00    0.0000000000000000E+00
             0.0000000000000000E+00    0.0000000000000000E+00    0.0000000000000000E+00
             0.0000000000000000E+00    0.0000000000000000E+00    0.0000000000000000E+00
             0.0000000000000000E+00    0.0000000000000000E+00    0.0000000000000000E+00
             0.0000000000000000E+00    0.0000000000000000E+00    0.0000000000000000E+00
             0.0000000000000000E+00    0.0000000000000000E+00    0.0000000000000000E+00
             0.0000000000000000E+00    0.0000000000000000E+00    0.0000000000000000E+00
             0.0000000000000000E+00    0.0000000000000000E+00    0.0000000000000000E+00
             0.0000000000000000E+00    0.0000000000000000E+00    0.0000000000000000E+00
             0.0000000000000000E+00    0.0000000000000000E+00    0.0000000000000000E+00
             0.0000000000000000E+00    0.0000000000000000E+00    0.0000000000000000E+00
             0.0000000000000000E+00    0.0000000000000000E+00    0.0000000000000000E+00
             0.0000000000000000E+00    0.0000000000000000E+00    0.0000000000000000E+00
             0.0000000000000000E+00    0.0000000000000000E+00    0.0000000000000000E+00
             0.0000000000000000E+00    0.0000000000000000E+00    0.0000000000000000E+00
             0.0000000000000000E+00    0.0000000000000000E+00    0.0000000000000000E+00
             0.0000000000000000E+00    0.0000000000000000E+00    0.0000000000000000E+00
             0.0000000000000000E+00    0.0000000000000000E+00    0.0000000000000000E+00
             0.0000000000000000E+00    0.0000000000000000E+00    0.0000000000000000E+00
             0.0000000000000000E+00    0.0000000000000000E+00    0.0000000000000000E+00
             0.0000000000000000E+00    0.0000000000000000E+00    0.0000000000000000E+00
             0.0000000000000000E+00    0.0000000000000000E+00    0.0000000000000000E+00
             0.0000000000000000E+00    0.0000000000000000E+00    0.0000000000000000E+00
             0.0000000000000000E+00    0.0000000000000000E+00    0.0000000000000000E+00
             0.0000000000000000E+00    0.0000000000000000E+00    0.0000000000000000E+00
             0.0000000000000000E+00    0.0000000000000000E+00    0.0000000000000000E+00
             0.0000000000000000E+00    0.0000000000000000E+00    0.0000000000000000E+00
             0.0000000000000000E+00    0.0000000000000000E+00    0.0000000000000000E+00
             0.0000000000000000E+00    0.0000000000000000E+00    0.0000000000000000E+00
             0.0000000000000000E+00    0.0000000000000000E+00    0.0000000000000000E+00
             0.0000000000000000E+00    0.0000000000000000E+00    0.0000000000000000E+00
             0.0000000000000000E+00    0.0000000000000000E+00    0.0000000000000000E+00
             0.0000000000000000E+00    0.0000000000000000E+00    0.0000000000000000E+00
             0.0000000000000000E+00    0.0000000000000000E+00    0.0000000000000000E+00
             0.0000000000000000E+00    0.0000000000000000E+00    0.0000000000000000E+00
             0.0000000000000000E+00    0.0000000000000000E+00    0.0000000000000000E+00
             0.0000000000000000E+00    0.0000000000000000E+00    0.0000000000000000E+00
             0.0000000000000000E+00    0.0000000000000000E+00    0.0000000000000000E+00
             0.0000000000000000E+00    0.0000000000000000E+00    0.0000000000000000E+00
             0.0000000000000000E+00    0.0000000000000000E+00    0.0000000000000000E+00
             0.0000000000000000E+00    0.0000000000000000E+00    0.0000000000000000E+00
             0.0000000000000000E+00    0.0000000000000000E+00    0.0000000000000000E+00
             0.0000000000000000E+00    0.0000000000000000E+00    0.0000000000000000E+00
             0.0000000000000000E+00    0.0000000000000000E+00    0.0000000000000000E+00
             0.0000000000000000E+00    0.0000000000000000E+00    0.0000000000000000E+00
             0.0000000000000000E+00    0.0000000000000000E+00    0.0000000000000000E+00
             0.0000000000000000E+00    0.0000000000000000E+00    0.0000000000000000E+00
             0.0000000000000000E+00    0.0000000000000000E+00    0.0000000000000000E+00
             0.0000000000000000E+00    0.0000000000000000E+00    0.0000000000000000E+00
             0.0000000000000000E+00    0.0000000000000000E+00    0.0000000000000000E+00
             0.0000000000000000E+00    0.0000000000000000E+00    0.0000000000000000E+00
             0.0000000000000000E+00    0.0000000000000000E+00    0.0000000000000000E+00
             0.0000000000000000E+00    0.0000000000000000E+00    0.0000000000000000E+00
             0.0000000000000000E+00    0.0000000000000000E+00    0.0000000000000000E+00
             0.0000000000000000E+00    0.0000000000000000E+00    0.0000000000000000E+00
             0.0000000000000000E+00    0.0000000000000000E+00    0.0000000000000000E+00
             0.0000000000000000E+00    0.0000000000000000E+00    0.0000000000000000E+00
             0.0000000000000000E+00    0.0000000000000000E+00    0.0000000000000000E+00
             0.0000000000000000E+00    0.0000000000000000E+00    0.0000000000000000E+00