 # Version information for this restart file 
 # current date 2024-01-11 13:40:21.251
 # current working dir /gpfs/home/cahart/transport/melamine/au_from-h2/ci-neb/ts1/dft_leads-sz_tip-dzvp_surf-dzvp_kpoints-2-4-20_replicas-5
 # Program compiled at                              Thu 21 Sep 19:20:17 BST 2023
 # Program compiled on                                           hx1-c12-login-1
 # Program compiled for                                                    local
 # Source code revision number                                       git:5518aa6
 &GLOBAL
   EXTENDED_FFT_LENGTHS  T
   PRINT_LEVEL  MEDIUM
   PROJECT_NAME 2_dft_wfn-r-0
   OUTPUT_FILE_NAME 2_dft_wfn-r-0.out
   RUN_TYPE  BAND
 &END GLOBAL
 &MOTION
   &CONSTRAINT
     &FIXED_ATOMS
       LIST  1..93 104..183
     &END FIXED_ATOMS
   &END CONSTRAINT
   &BAND
     NPROC_REP  64
     BAND_TYPE  CI-NEB
     NUMBER_OF_REPLICA  5
     K_SPRING     5.0000000000000003E-02
     &CI_NEB
       NSTEPS_IT  5
     &END CI_NEB
     &OPTIMIZE_BAND
       OPT_TYPE  DIIS
       &DIIS
         MAX_STEPS  1000
       &END DIIS
     &END OPTIMIZE_BAND
     &REPLICA
       &COORD
             0.0000000000000000E+00    0.0000000000000000E+00    0.0000000000000000E+00
             0.0000000000000000E+00    2.9550000000000063E+00    0.0000000000000000E+00
             0.0000000000000000E+00    5.9110000000000191E+00    0.0000000000000000E+00
             2.9560000000000035E+00    0.0000000000000000E+00    0.0000000000000000E+00
             2.9560000000000035E+00    2.9550000000000063E+00    0.0000000000000000E+00
             2.9560000000000035E+00    5.9110000000000191E+00    0.0000000000000000E+00
             5.9120000000000070E+00    0.0000000000000000E+00    0.0000000000000000E+00
             5.9120000000000070E+00    2.9550000000000063E+00    0.0000000000000000E+00
             5.9120000000000070E+00    5.9110000000000191E+00    0.0000000000000000E+00
             8.6700000000000124E+00    0.0000000000000000E+00    0.0000000000000000E+00
             8.6700000000000124E+00    2.9550000000000063E+00    0.0000000000000000E+00
             8.6700000000000124E+00    5.9110000000000191E+00    0.0000000000000000E+00
             1.1626000000000030E+01    0.0000000000000000E+00    0.0000000000000000E+00
             1.1626000000000030E+01    2.9550000000000063E+00    0.0000000000000000E+00
             1.1626000000000030E+01    5.9110000000000191E+00    0.0000000000000000E+00
             1.4780000000000018E+00    1.4780000000000018E+00    2.0900000000000052E+00
             1.4780000000000018E+00    4.4330000000000096E+00    2.0900000000000052E+00
             1.4780000000000018E+00    7.3890000000000189E+00    2.0900000000000052E+00
             4.4340000000000046E+00    1.4780000000000018E+00    2.0900000000000052E+00
             4.4340000000000046E+00    4.4330000000000096E+00    2.0900000000000052E+00
             4.4340000000000046E+00    7.3890000000000189E+00    2.0900000000000052E+00
             7.1920000000000073E+00    1.4780000000000018E+00    2.0900000000000052E+00
             7.1920000000000073E+00    4.4330000000000096E+00    2.0900000000000052E+00
             7.1920000000000073E+00    7.3890000000000189E+00    2.0900000000000052E+00
             1.0148000000000035E+01    1.4780000000000018E+00    2.0900000000000052E+00
             1.0148000000000035E+01    4.4330000000000096E+00    2.0900000000000052E+00
             1.0148000000000035E+01    7.3890000000000189E+00    2.0900000000000052E+00
             1.3104000000000031E+01    1.4780000000000018E+00    2.0900000000000052E+00
             1.3104000000000031E+01    4.4330000000000096E+00    2.0900000000000052E+00
             1.3104000000000031E+01    7.3890000000000189E+00    2.0900000000000052E+00
             0.0000000000000000E+00    0.0000000000000000E+00    4.1800000000000104E+00
             0.0000000000000000E+00    2.9550000000000063E+00    4.1800000000000104E+00
             0.0000000000000000E+00    5.9110000000000191E+00    4.1800000000000104E+00
             2.9560000000000035E+00    0.0000000000000000E+00    4.1800000000000104E+00
             2.9560000000000035E+00    2.9550000000000063E+00    4.1800000000000104E+00
             2.9560000000000035E+00    5.9110000000000191E+00    4.1800000000000104E+00
             5.9120000000000070E+00    0.0000000000000000E+00    4.1800000000000104E+00
             5.9120000000000070E+00    2.9550000000000063E+00    4.1800000000000104E+00
             5.9120000000000070E+00    5.9110000000000191E+00    4.1800000000000104E+00
             8.6700000000000124E+00    0.0000000000000000E+00    4.1800000000000104E+00
             8.6700000000000124E+00    2.9550000000000063E+00    4.1800000000000104E+00
             8.6700000000000124E+00    5.9110000000000191E+00    4.1800000000000104E+00
             1.1626000000000030E+01    0.0000000000000000E+00    4.1800000000000104E+00
             1.1626000000000030E+01    2.9550000000000063E+00    4.1800000000000104E+00
             1.1626000000000030E+01    5.9110000000000191E+00    4.1800000000000104E+00
             1.4780000000000018E+00    1.4780000000000018E+00    6.2700000000000138E+00
             1.4780000000000018E+00    4.4330000000000096E+00    6.2700000000000138E+00
             1.4780000000000018E+00    7.3890000000000189E+00    6.2700000000000138E+00
             4.4340000000000046E+00    1.4780000000000018E+00    6.2700000000000138E+00
             4.4340000000000046E+00    4.4330000000000096E+00    6.2700000000000138E+00
             4.4340000000000046E+00    7.3890000000000189E+00    6.2700000000000138E+00
             7.1920000000000073E+00    1.4780000000000018E+00    6.2700000000000138E+00
             7.1920000000000073E+00    4.4330000000000096E+00    6.2700000000000138E+00
             7.1920000000000073E+00    7.3890000000000189E+00    6.2700000000000138E+00
             1.0148000000000035E+01    1.4780000000000018E+00    6.2700000000000138E+00
             1.0148000000000035E+01    4.4330000000000096E+00    6.2700000000000138E+00
             1.0148000000000035E+01    7.3890000000000189E+00    6.2700000000000138E+00
             1.3104000000000031E+01    1.4780000000000018E+00    6.2700000000000138E+00
             1.3104000000000031E+01    4.4330000000000096E+00    6.2700000000000138E+00
             1.3104000000000031E+01    7.3890000000000189E+00    6.2700000000000138E+00
             0.0000000000000000E+00    0.0000000000000000E+00    8.3600000000000207E+00
             0.0000000000000000E+00    2.9550000000000063E+00    8.3600000000000207E+00
             0.0000000000000000E+00    5.9110000000000191E+00    8.3600000000000207E+00
             2.9560000000000035E+00    0.0000000000000000E+00    8.3600000000000207E+00
             2.9560000000000035E+00    2.9550000000000063E+00    8.3600000000000207E+00
             2.9560000000000035E+00    5.9110000000000191E+00    8.3600000000000207E+00
             5.9120000000000070E+00    0.0000000000000000E+00    8.3600000000000207E+00
             5.9120000000000070E+00    2.9550000000000063E+00    8.3600000000000207E+00
             5.9120000000000070E+00    5.9110000000000191E+00    8.3600000000000207E+00
             8.6700000000000124E+00    0.0000000000000000E+00    8.3600000000000207E+00
             8.6700000000000124E+00    2.9550000000000063E+00    8.3600000000000207E+00
             8.6700000000000124E+00    5.9110000000000191E+00    8.3600000000000207E+00
             1.1626000000000030E+01    0.0000000000000000E+00    8.3600000000000207E+00
             1.1626000000000030E+01    2.9550000000000063E+00    8.3600000000000207E+00
             1.1626000000000030E+01    5.9110000000000191E+00    8.3600000000000207E+00
             1.4780000000000018E+00    1.4780000000000018E+00    1.0450000000000015E+01
             1.4780000000000018E+00    4.4330000000000096E+00    1.0450000000000015E+01
             1.4780000000000018E+00    7.3890000000000189E+00    1.0450000000000015E+01
             4.4340000000000046E+00    1.4780000000000018E+00    1.0450000000000015E+01
             4.4340000000000046E+00    4.4330000000000096E+00    1.0450000000000015E+01
             4.4340000000000046E+00    7.3890000000000189E+00    1.0450000000000015E+01
             7.1920000000000073E+00    1.4780000000000018E+00    1.0450000000000015E+01
             7.1920000000000073E+00    4.4330000000000096E+00    1.0450000000000015E+01
             7.1920000000000073E+00    7.3890000000000189E+00    1.0450000000000015E+01
             1.0148000000000035E+01    1.4780000000000018E+00    1.0450000000000015E+01
             1.0148000000000035E+01    4.4330000000000096E+00    1.0450000000000015E+01
             1.0148000000000035E+01    7.3890000000000189E+00    1.0450000000000015E+01
             1.3104000000000031E+01    1.4780000000000018E+00    1.0450000000000015E+01
             1.3104000000000031E+01    4.4330000000000096E+00    1.0450000000000015E+01
             1.3104000000000031E+01    7.3890000000000189E+00    1.0450000000000015E+01
             4.8554000000000146E+00    5.9119000000000117E+00    1.2031800000000027E+01
             9.5280000000000307E+00    5.9137000000000191E+00    1.2034000000000033E+01
             7.1920000000000073E+00    5.9340000000000197E+00    1.2040000000000020E+01
             4.0750319168000084E+00    5.9049488170000144E+00    1.2696844061800034E+01
             1.0293988349500024E+01    5.9062142779000126E+00    1.2716532694500030E+01
             6.0099999686000194E+00    5.9120523853000186E+00    1.2765819797400038E+01
             8.3750478948000140E+00    5.9129627335000112E+00    1.2760746495900035E+01
             5.9788500869000174E+00    5.8882515165000093E+00    1.4094239568500033E+01
             8.4047327065000150E+00    5.8893877816000151E+00    1.4094060897200023E+01
             7.1943473363000185E+00    5.8799164377000182E+00    1.4701118490300034E+01
             7.1912293097000166E+00    5.8521058221000137E+00    1.6050622658200027E+01
             6.3086348447000162E+00    5.8615539361000133E+00    1.6548439365000029E+01
             8.0709262665000168E+00    5.8621389354000151E+00    1.6553588809700035E+01
             7.3120000000000100E+00    5.9340000000000197E+00    2.1043000000000038E+01
             5.8130000000000148E+00    7.4340000000000224E+00    2.2992000000000065E+01
             8.8130000000000130E+00    4.4340000000000046E+00    2.2992000000000065E+01
             5.8130000000000148E+00    4.4330000000000096E+00    2.2992000000000065E+01
             8.8130000000000130E+00    7.4340000000000224E+00    2.2992000000000065E+01
             1.4780000000000018E+00    1.4780000000000018E+00    2.5082000000000058E+01
             1.4780000000000018E+00    4.4330000000000096E+00    2.5082000000000058E+01
             1.4780000000000018E+00    7.3890000000000189E+00    2.5082000000000058E+01
             4.4340000000000046E+00    1.4780000000000018E+00    2.5082000000000058E+01
             4.4340000000000046E+00    4.4330000000000096E+00    2.5082000000000058E+01
             4.4340000000000046E+00    7.3890000000000189E+00    2.5082000000000058E+01
             7.1920000000000073E+00    1.4780000000000018E+00    2.5082000000000058E+01
             7.1920000000000073E+00    4.4330000000000096E+00    2.5082000000000058E+01
             7.1920000000000073E+00    7.3890000000000189E+00    2.5082000000000058E+01
             1.0148000000000035E+01    1.4780000000000018E+00    2.5082000000000058E+01
             1.0148000000000035E+01    4.4330000000000096E+00    2.5082000000000058E+01
             1.0148000000000035E+01    7.3890000000000189E+00    2.5082000000000058E+01
             1.3104000000000031E+01    1.4780000000000018E+00    2.5082000000000058E+01
             1.3104000000000031E+01    4.4330000000000096E+00    2.5082000000000058E+01
             1.3104000000000031E+01    7.3890000000000189E+00    2.5082000000000058E+01
             0.0000000000000000E+00    0.0000000000000000E+00    2.7172000000000072E+01
             0.0000000000000000E+00    2.9550000000000063E+00    2.7172000000000072E+01
             0.0000000000000000E+00    5.9110000000000191E+00    2.7172000000000072E+01
             2.9560000000000035E+00    0.0000000000000000E+00    2.7172000000000072E+01
             2.9560000000000035E+00    2.9550000000000063E+00    2.7172000000000072E+01
             2.9560000000000035E+00    5.9110000000000191E+00    2.7172000000000072E+01
             5.9120000000000070E+00    0.0000000000000000E+00    2.7172000000000072E+01
             5.9120000000000070E+00    2.9550000000000063E+00    2.7172000000000072E+01
             5.9120000000000070E+00    5.9110000000000191E+00    2.7172000000000072E+01
             8.6700000000000124E+00    0.0000000000000000E+00    2.7172000000000072E+01
             8.6700000000000124E+00    2.9550000000000063E+00    2.7172000000000072E+01
             8.6700000000000124E+00    5.9110000000000191E+00    2.7172000000000072E+01
             1.1626000000000030E+01    0.0000000000000000E+00    2.7172000000000072E+01
             1.1626000000000030E+01    2.9550000000000063E+00    2.7172000000000072E+01
             1.1626000000000030E+01    5.9110000000000191E+00    2.7172000000000072E+01
             1.4780000000000018E+00    1.4780000000000018E+00    2.9262000000000093E+01
             1.4780000000000018E+00    4.4330000000000096E+00    2.9262000000000093E+01
             1.4780000000000018E+00    7.3890000000000189E+00    2.9262000000000093E+01
             4.4340000000000046E+00    1.4780000000000018E+00    2.9262000000000093E+01
             4.4340000000000046E+00    4.4330000000000096E+00    2.9262000000000093E+01
             4.4340000000000046E+00    7.3890000000000189E+00    2.9262000000000093E+01
             7.1920000000000073E+00    1.4780000000000018E+00    2.9262000000000093E+01
             7.1920000000000073E+00    4.4330000000000096E+00    2.9262000000000093E+01
             7.1920000000000073E+00    7.3890000000000189E+00    2.9262000000000093E+01
             1.0148000000000035E+01    1.4780000000000018E+00    2.9262000000000093E+01
             1.0148000000000035E+01    4.4330000000000096E+00    2.9262000000000093E+01
             1.0148000000000035E+01    7.3890000000000189E+00    2.9262000000000093E+01
             1.3104000000000031E+01    1.4780000000000018E+00    2.9262000000000093E+01
             1.3104000000000031E+01    4.4330000000000096E+00    2.9262000000000093E+01
             1.3104000000000031E+01    7.3890000000000189E+00    2.9262000000000093E+01
             0.0000000000000000E+00    0.0000000000000000E+00    3.1352000000000046E+01
             0.0000000000000000E+00    2.9550000000000063E+00    3.1352000000000046E+01
             0.0000000000000000E+00    5.9110000000000191E+00    3.1352000000000046E+01
             2.9560000000000035E+00    0.0000000000000000E+00    3.1352000000000046E+01
             2.9560000000000035E+00    2.9550000000000063E+00    3.1352000000000046E+01
             2.9560000000000035E+00    5.9110000000000191E+00    3.1352000000000046E+01
             5.9120000000000070E+00    0.0000000000000000E+00    3.1352000000000046E+01
             5.9120000000000070E+00    2.9550000000000063E+00    3.1352000000000046E+01
             5.9120000000000070E+00    5.9110000000000191E+00    3.1352000000000046E+01
             8.6700000000000124E+00    0.0000000000000000E+00    3.1352000000000046E+01
             8.6700000000000124E+00    2.9550000000000063E+00    3.1352000000000046E+01
             8.6700000000000124E+00    5.9110000000000191E+00    3.1352000000000046E+01
             1.1626000000000030E+01    0.0000000000000000E+00    3.1352000000000046E+01
             1.1626000000000030E+01    2.9550000000000063E+00    3.1352000000000046E+01
             1.1626000000000030E+01    5.9110000000000191E+00    3.1352000000000046E+01
             1.4780000000000018E+00    1.4780000000000018E+00    3.3442000000000093E+01
             1.4780000000000018E+00    4.4330000000000096E+00    3.3442000000000093E+01
             1.4780000000000018E+00    7.3890000000000189E+00    3.3442000000000093E+01
             4.4340000000000046E+00    1.4780000000000018E+00    3.3442000000000093E+01
             4.4340000000000046E+00    4.4330000000000096E+00    3.3442000000000093E+01
             4.4340000000000046E+00    7.3890000000000189E+00    3.3442000000000093E+01
             7.1920000000000073E+00    1.4780000000000018E+00    3.3442000000000093E+01
             7.1920000000000073E+00    4.4330000000000096E+00    3.3442000000000093E+01
             7.1920000000000073E+00    7.3890000000000189E+00    3.3442000000000093E+01
             1.0148000000000035E+01    1.4780000000000018E+00    3.3442000000000093E+01
             1.0148000000000035E+01    4.4330000000000096E+00    3.3442000000000093E+01
             1.0148000000000035E+01    7.3890000000000189E+00    3.3442000000000093E+01
             1.3104000000000031E+01    1.4780000000000018E+00    3.3442000000000093E+01
             1.3104000000000031E+01    4.4330000000000096E+00    3.3442000000000093E+01
             1.3104000000000031E+01    7.3890000000000189E+00    3.3442000000000093E+01
       &END COORD
       &VELOCITY
             0.0000000000000000E+00    0.0000000000000000E+00    0.0000000000000000E+00
             0.0000000000000000E+00    0.0000000000000000E+00    0.0000000000000000E+00
             0.0000000000000000E+00    0.0000000000000000E+00    0.0000000000000000E+00
             0.0000000000000000E+00    0.0000000000000000E+00    0.0000000000000000E+00
             0.0000000000000000E+00    0.0000000000000000E+00    0.0000000000000000E+00
             0.0000000000000000E+00    0.0000000000000000E+00    0.0000000000000000E+00
             0.0000000000000000E+00    0.0000000000000000E+00    0.0000000000000000E+00
             0.0000000000000000E+00    0.0000000000000000E+00    0.0000000000000000E+00
             0.0000000000000000E+00    0.0000000000000000E+00    0.0000000000000000E+00
             0.0000000000000000E+00    0.0000000000000000E+00    0.0000000000000000E+00
             0.0000000000000000E+00    0.0000000000000000E+00    0.0000000000000000E+00
             0.0000000000000000E+00    0.0000000000000000E+00    0.0000000000000000E+00
             0.0000000000000000E+00    0.0000000000000000E+00    0.0000000000000000E+00
             0.0000000000000000E+00    0.0000000000000000E+00    0.0000000000000000E+00
             0.0000000000000000E+00    0.0000000000000000E+00    0.0000000000000000E+00
             0.0000000000000000E+00    0.0000000000000000E+00    0.0000000000000000E+00
             0.0000000000000000E+00    0.0000000000000000E+00    0.0000000000000000E+00
             0.0000000000000000E+00    0.0000000000000000E+00    0.0000000000000000E+00
             0.0000000000000000E+00    0.0000000000000000E+00    0.0000000000000000E+00
             0.0000000000000000E+00    0.0000000000000000E+00    0.0000000000000000E+00
             0.0000000000000000E+00    0.0000000000000000E+00    0.0000000000000000E+00
             0.0000000000000000E+00    0.0000000000000000E+00    0.0000000000000000E+00
             0.0000000000000000E+00    0.0000000000000000E+00    0.0000000000000000E+00
             0.0000000000000000E+00    0.0000000000000000E+00    0.0000000000000000E+00
             0.0000000000000000E+00    0.0000000000000000E+00    0.0000000000000000E+00
             0.0000000000000000E+00    0.0000000000000000E+00    0.0000000000000000E+00
             0.0000000000000000E+00    0.0000000000000000E+00    0.0000000000000000E+00
             0.0000000000000000E+00    0.0000000000000000E+00    0.0000000000000000E+00
             0.0000000000000000E+00    0.0000000000000000E+00    0.0000000000000000E+00
             0.0000000000000000E+00    0.0000000000000000E+00    0.0000000000000000E+00
             0.0000000000000000E+00    0.0000000000000000E+00    0.0000000000000000E+00
             0.0000000000000000E+00    0.0000000000000000E+00    0.0000000000000000E+00
             0.0000000000000000E+00    0.0000000000000000E+00    0.0000000000000000E+00
             0.0000000000000000E+00    0.0000000000000000E+00    0.0000000000000000E+00
             0.0000000000000000E+00    0.0000000000000000E+00    0.0000000000000000E+00
             0.0000000000000000E+00    0.0000000000000000E+00    0.0000000000000000E+00
             0.0000000000000000E+00    0.0000000000000000E+00    0.0000000000000000E+00
             0.0000000000000000E+00    0.0000000000000000E+00    0.0000000000000000E+00
             0.0000000000000000E+00    0.0000000000000000E+00    0.0000000000000000E+00
             0.0000000000000000E+00    0.0000000000000000E+00    0.0000000000000000E+00
             0.0000000000000000E+00    0.0000000000000000E+00    0.0000000000000000E+00
             0.0000000000000000E+00    0.0000000000000000E+00    0.0000000000000000E+00
             0.0000000000000000E+00    0.0000000000000000E+00    0.0000000000000000E+00
             0.0000000000000000E+00    0.0000000000000000E+00    0.0000000000000000E+00
             0.0000000000000000E+00    0.0000000000000000E+00    0.0000000000000000E+00
             0.0000000000000000E+00    0.0000000000000000E+00    0.0000000000000000E+00
             0.0000000000000000E+00    0.0000000000000000E+00    0.0000000000000000E+00
             0.0000000000000000E+00    0.0000000000000000E+00    0.0000000000000000E+00
             0.0000000000000000E+00    0.0000000000000000E+00    0.0000000000000000E+00
             0.0000000000000000E+00    0.0000000000000000E+00    0.0000000000000000E+00
             0.0000000000000000E+00    0.0000000000000000E+00    0.0000000000000000E+00
             0.0000000000000000E+00    0.0000000000000000E+00    0.0000000000000000E+00
             0.0000000000000000E+00    0.0000000000000000E+00    0.0000000000000000E+00
             0.0000000000000000E+00    0.0000000000000000E+00    0.0000000000000000E+00
             0.0000000000000000E+00    0.0000000000000000E+00    0.0000000000000000E+00
             0.0000000000000000E+00    0.0000000000000000E+00    0.0000000000000000E+00
             0.0000000000000000E+00    0.0000000000000000E+00    0.0000000000000000E+00
             0.0000000000000000E+00    0.0000000000000000E+00    0.0000000000000000E+00
             0.0000000000000000E+00    0.0000000000000000E+00    0.0000000000000000E+00
             0.0000000000000000E+00    0.0000000000000000E+00    0.0000000000000000E+00
             0.0000000000000000E+00    0.0000000000000000E+00    0.0000000000000000E+00
             0.0000000000000000E+00    0.0000000000000000E+00    0.0000000000000000E+00
             0.0000000000000000E+00    0.0000000000000000E+00    0.0000000000000000E+00
             0.0000000000000000E+00    0.0000000000000000E+00    0.0000000000000000E+00
             0.0000000000000000E+00    0.0000000000000000E+00    0.0000000000000000E+00
             0.0000000000000000E+00    0.0000000000000000E+00    0.0000000000000000E+00
             0.0000000000000000E+00    0.0000000000000000E+00    0.0000000000000000E+00
             0.0000000000000000E+00    0.0000000000000000E+00    0.0000000000000000E+00
             0.0000000000000000E+00    0.0000000000000000E+00    0.0000000000000000E+00
             0.0000000000000000E+00    0.0000000000000000E+00    0.0000000000000000E+00
             0.0000000000000000E+00    0.0000000000000000E+00    0.0000000000000000E+00
             0.0000000000000000E+00    0.0000000000000000E+00    0.0000000000000000E+00
             0.0000000000000000E+00    0.0000000000000000E+00    0.0000000000000000E+00
             0.0000000000000000E+00    0.0000000000000000E+00    0.0000000000000000E+00
             0.0000000000000000E+00    0.0000000000000000E+00    0.0000000000000000E+00
             0.0000000000000000E+00    0.0000000000000000E+00    0.0000000000000000E+00
             0.0000000000000000E+00    0.0000000000000000E+00    0.0000000000000000E+00
             0.0000000000000000E+00    0.0000000000000000E+00    0.0000000000000000E+00
             0.0000000000000000E+00    0.0000000000000000E+00    0.0000000000000000E+00
             0.0000000000000000E+00    0.0000000000000000E+00    0.0000000000000000E+00
             0.0000000000000000E+00    0.0000000000000000E+00    0.0000000000000000E+00
             0.0000000000000000E+00    0.0000000000000000E+00    0.0000000000000000E+00
             0.0000000000000000E+00    0.0000000000000000E+00    0.0000000000000000E+00
             0.0000000000000000E+00    0.0000000000000000E+00    0.0000000000000000E+00
             0.0000000000000000E+00    0.0000000000000000E+00    0.0000000000000000E+00
             0.0000000000000000E+00    0.0000000000000000E+00    0.0000000000000000E+00
             0.0000000000000000E+00    0.0000000000000000E+00    0.0000000000000000E+00
             0.0000000000000000E+00    0.0000000000000000E+00    0.0000000000000000E+00
             0.0000000000000000E+00    0.0000000000000000E+00    0.0000000000000000E+00
             0.0000000000000000E+00    0.0000000000000000E+00    0.0000000000000000E+00
             0.0000000000000000E+00    0.0000000000000000E+00    0.0000000000000000E+00
             0.0000000000000000E+00    0.0000000000000000E+00    0.0000000000000000E+00
             0.0000000000000000E+00    0.0000000000000000E+00    0.0000000000000000E+00
             0.0000000000000000E+00    0.0000000000000000E+00    0.0000000000000000E+00
             0.0000000000000000E+00    0.0000000000000000E+00    0.0000000000000000E+00
             0.0000000000000000E+00    0.0000000000000000E+00    0.0000000000000000E+00
             0.0000000000000000E+00    0.0000000000000000E+00    0.0000000000000000E+00
             0.0000000000000000E+00    0.0000000000000000E+00    0.0000000000000000E+00
             0.0000000000000000E+00    0.0000000000000000E+00    0.0000000000000000E+00
             0.0000000000000000E+00    0.0000000000000000E+00    0.0000000000000000E+00
             0.0000000000000000E+00    0.0000000000000000E+00    0.0000000000000000E+00
             0.0000000000000000E+00    0.0000000000000000E+00    0.0000000000000000E+00
             0.0000000000000000E+00    0.0000000000000000E+00    0.0000000000000000E+00
             0.0000000000000000E+00    0.0000000000000000E+00    0.0000000000000000E+00
             0.0000000000000000E+00    0.0000000000000000E+00    0.0000000000000000E+00
             0.0000000000000000E+00    0.0000000000000000E+00    0.0000000000000000E+00
             0.0000000000000000E+00    0.0000000000000000E+00    0.0000000000000000E+00
             0.0000000000000000E+00    0.0000000000000000E+00    0.0000000000000000E+00
             0.0000000000000000E+00    0.0000000000000000E+00    0.0000000000000000E+00
             0.0000000000000000E+00    0.0000000000000000E+00    0.0000000000000000E+00
             0.0000000000000000E+00    0.0000000000000000E+00    0.0000000000000000E+00
             0.0000000000000000E+00    0.0000000000000000E+00    0.0000000000000000E+00
             0.0000000000000000E+00    0.0000000000000000E+00    0.0000000000000000E+00
             0.0000000000000000E+00    0.0000000000000000E+00    0.0000000000000000E+00
             0.0000000000000000E+00    0.0000000000000000E+00    0.0000000000000000E+00
             0.0000000000000000E+00    0.0000000000000000E+00    0.0000000000000000E+00
             0.0000000000000000E+00    0.0000000000000000E+00    0.0000000000000000E+00
             0.0000000000000000E+00    0.0000000000000000E+00    0.0000000000000000E+00
             0.0000000000000000E+00    0.0000000000000000E+00    0.0000000000000000E+00
             0.0000000000000000E+00    0.0000000000000000E+00    0.0000000000000000E+00
             0.0000000000000000E+00    0.0000000000000000E+00    0.0000000000000000E+00
             0.0000000000000000E+00    0.0000000000000000E+00    0.0000000000000000E+00
             0.0000000000000000E+00    0.0000000000000000E+00    0.0000000000000000E+00
             0.0000000000000000E+00    0.0000000000000000E+00    0.0000000000000000E+00
             0.0000000000000000E+00    0.0000000000000000E+00    0.0000000000000000E+00
             0.0000000000000000E+00    0.0000000000000000E+00    0.0000000000000000E+00
             0.0000000000000000E+00    0.0000000000000000E+00    0.0000000000000000E+00
             0.0000000000000000E+00    0.0000000000000000E+00    0.0000000000000000E+00
             0.0000000000000000E+00    0.0000000000000000E+00    0.0000000000000000E+00
             0.0000000000000000E+00    0.0000000000000000E+00    0.0000000000000000E+00
             0.0000000000000000E+00    0.0000000000000000E+00    0.0000000000000000E+00
             0.0000000000000000E+00    0.0000000000000000E+00    0.0000000000000000E+00
             0.0000000000000000E+00    0.0000000000000000E+00    0.0000000000000000E+00
             0.0000000000000000E+00    0.0000000000000000E+00    0.0000000000000000E+00
             0.0000000000000000E+00    0.0000000000000000E+00    0.0000000000000000E+00
             0.0000000000000000E+00    0.0000000000000000E+00    0.0000000000000000E+00
             0.0000000000000000E+00    0.0000000000000000E+00    0.0000000000000000E+00
             0.0000000000000000E+00    0.0000000000000000E+00    0.0000000000000000E+00
             0.0000000000000000E+00    0.0000000000000000E+00    0.0000000000000000E+00
             0.0000000000000000E+00    0.0000000000000000E+00    0.0000000000000000E+00
             0.0000000000000000E+00    0.0000000000000000E+00    0.0000000000000000E+00
             0.0000000000000000E+00    0.0000000000000000E+00    0.0000000000000000E+00
             0.0000000000000000E+00    0.0000000000000000E+00    0.0000000000000000E+00
             0.0000000000000000E+00    0.0000000000000000E+00    0.0000000000000000E+00