 # Version information for this restart file 
 # current date 2024-01-10 22:03:10.570
 # current working dir /gpfs/home/cahart/transport/melamine/au_from-h2/ci-neb/ts1/dft_leads-sz_tip-dzvp_surf-dzvp_kpoints-2-4-20_replicas-5
 # Program compiled at                              Thu 21 Sep 19:20:17 BST 2023
 # Program compiled on                                           hx1-c12-login-1
 # Program compiled for                                                    local
 # Source code revision number                                       git:5518aa6
 &GLOBAL
   EXTENDED_FFT_LENGTHS  T
   PRINT_LEVEL  MEDIUM
   PROJECT_NAME 2_dft_wfn-r-0
   OUTPUT_FILE_NAME 2_dft_wfn-r-0.out
   RUN_TYPE  BAND
 &END GLOBAL
 &MOTION
   &CONSTRAINT
     &FIXED_ATOMS
       LIST  1..93 104..183
     &END FIXED_ATOMS
   &END CONSTRAINT
   &BAND
     NPROC_REP  64
     BAND_TYPE  CI-NEB
     NUMBER_OF_REPLICA  5
     K_SPRING     5.0000000000000003E-02
     &CI_NEB
       NSTEPS_IT  5
     &END CI_NEB
     &OPTIMIZE_BAND
       OPT_TYPE  DIIS
       &DIIS
         MAX_STEPS  1000
       &END DIIS
     &END OPTIMIZE_BAND
     &REPLICA
       &COORD
             0.0000000000000000E+00    0.0000000000000000E+00    0.0000000000000000E+00
             0.0000000000000000E+00    2.9550000000000014E+00    0.0000000000000000E+00
             0.0000000000000000E+00    5.9109999999999987E+00    0.0000000000000000E+00
             2.9559999999999995E+00    0.0000000000000000E+00    0.0000000000000000E+00
             2.9559999999999995E+00    2.9550000000000014E+00    0.0000000000000000E+00
             2.9559999999999995E+00    5.9109999999999987E+00    0.0000000000000000E+00
             5.9119999999999990E+00    0.0000000000000000E+00    0.0000000000000000E+00
             5.9119999999999990E+00    2.9550000000000014E+00    0.0000000000000000E+00
             5.9119999999999990E+00    5.9109999999999987E+00    0.0000000000000000E+00
             8.6699999999999999E+00    0.0000000000000000E+00    0.0000000000000000E+00
             8.6699999999999999E+00    2.9550000000000014E+00    0.0000000000000000E+00
             8.6699999999999999E+00    5.9109999999999987E+00    0.0000000000000000E+00
             1.1625999999999998E+01    0.0000000000000000E+00    0.0000000000000000E+00
             1.1625999999999998E+01    2.9550000000000014E+00    0.0000000000000000E+00
             1.1625999999999998E+01    5.9109999999999987E+00    0.0000000000000000E+00
             1.4779999999999998E+00    1.4779999999999998E+00    2.0899999999999999E+00
             1.4779999999999998E+00    4.4329999999999998E+00    2.0899999999999999E+00
             1.4779999999999998E+00    7.3890000000000020E+00    2.0899999999999999E+00
             4.4339999999999984E+00    1.4779999999999998E+00    2.0899999999999999E+00
             4.4339999999999984E+00    4.4329999999999998E+00    2.0899999999999999E+00
             4.4339999999999984E+00    7.3890000000000020E+00    2.0899999999999999E+00
             7.1920000000000002E+00    1.4779999999999998E+00    2.0899999999999999E+00
             7.1920000000000002E+00    4.4329999999999998E+00    2.0899999999999999E+00
             7.1920000000000002E+00    7.3890000000000020E+00    2.0899999999999999E+00
             1.0148000000000001E+01    1.4779999999999998E+00    2.0899999999999999E+00
             1.0148000000000001E+01    4.4329999999999998E+00    2.0899999999999999E+00
             1.0148000000000001E+01    7.3890000000000020E+00    2.0899999999999999E+00
             1.3103999999999999E+01    1.4779999999999998E+00    2.0899999999999999E+00
             1.3103999999999999E+01    4.4329999999999998E+00    2.0899999999999999E+00
             1.3103999999999999E+01    7.3890000000000020E+00    2.0899999999999999E+00
             0.0000000000000000E+00    0.0000000000000000E+00    4.1799999999999997E+00
             0.0000000000000000E+00    2.9550000000000014E+00    4.1799999999999997E+00
             0.0000000000000000E+00    5.9109999999999987E+00    4.1799999999999997E+00
             2.9559999999999995E+00    0.0000000000000000E+00    4.1799999999999997E+00
             2.9559999999999995E+00    2.9550000000000014E+00    4.1799999999999997E+00
             2.9559999999999995E+00    5.9109999999999987E+00    4.1799999999999997E+00
             5.9119999999999990E+00    0.0000000000000000E+00    4.1799999999999997E+00
             5.9119999999999990E+00    2.9550000000000014E+00    4.1799999999999997E+00
             5.9119999999999990E+00    5.9109999999999987E+00    4.1799999999999997E+00
             8.6699999999999999E+00    0.0000000000000000E+00    4.1799999999999997E+00
             8.6699999999999999E+00    2.9550000000000014E+00    4.1799999999999997E+00
             8.6699999999999999E+00    5.9109999999999987E+00    4.1799999999999997E+00
             1.1625999999999998E+01    0.0000000000000000E+00    4.1799999999999997E+00
             1.1625999999999998E+01    2.9550000000000014E+00    4.1799999999999997E+00
             1.1625999999999998E+01    5.9109999999999987E+00    4.1799999999999997E+00
             1.4779999999999998E+00    1.4779999999999998E+00    6.2699999999999996E+00
             1.4779999999999998E+00    4.4329999999999998E+00    6.2699999999999996E+00
             1.4779999999999998E+00    7.3890000000000020E+00    6.2699999999999996E+00
             4.4339999999999984E+00    1.4779999999999998E+00    6.2699999999999996E+00
             4.4339999999999984E+00    4.4329999999999998E+00    6.2699999999999996E+00
             4.4339999999999984E+00    7.3890000000000020E+00    6.2699999999999996E+00
             7.1920000000000002E+00    1.4779999999999998E+00    6.2699999999999996E+00
             7.1920000000000002E+00    4.4329999999999998E+00    6.2699999999999996E+00
             7.1920000000000002E+00    7.3890000000000020E+00    6.2699999999999996E+00
             1.0148000000000001E+01    1.4779999999999998E+00    6.2699999999999996E+00
             1.0148000000000001E+01    4.4329999999999998E+00    6.2699999999999996E+00
             1.0148000000000001E+01    7.3890000000000020E+00    6.2699999999999996E+00
             1.3103999999999999E+01    1.4779999999999998E+00    6.2699999999999996E+00
             1.3103999999999999E+01    4.4329999999999998E+00    6.2699999999999996E+00
             1.3103999999999999E+01    7.3890000000000020E+00    6.2699999999999996E+00
             0.0000000000000000E+00    0.0000000000000000E+00    8.3599999999999994E+00
             0.0000000000000000E+00    2.9550000000000014E+00    8.3599999999999994E+00
             0.0000000000000000E+00    5.9109999999999987E+00    8.3599999999999994E+00
             2.9559999999999995E+00    0.0000000000000000E+00    8.3599999999999994E+00
             2.9559999999999995E+00    2.9550000000000014E+00    8.3599999999999994E+00
             2.9559999999999995E+00    5.9109999999999987E+00    8.3599999999999994E+00
             5.9119999999999990E+00    0.0000000000000000E+00    8.3599999999999994E+00
             5.9119999999999990E+00    2.9550000000000014E+00    8.3599999999999994E+00
             5.9119999999999990E+00    5.9109999999999987E+00    8.3599999999999994E+00
             8.6699999999999999E+00    0.0000000000000000E+00    8.3599999999999994E+00
             8.6699999999999999E+00    2.9550000000000014E+00    8.3599999999999994E+00
             8.6699999999999999E+00    5.9109999999999987E+00    8.3599999999999994E+00
             1.1625999999999998E+01    0.0000000000000000E+00    8.3599999999999994E+00
             1.1625999999999998E+01    2.9550000000000014E+00    8.3599999999999994E+00
             1.1625999999999998E+01    5.9109999999999987E+00    8.3599999999999994E+00
             1.4779999999999998E+00    1.4779999999999998E+00    1.0449999999999990E+01
             1.4779999999999998E+00    4.4329999999999998E+00    1.0449999999999990E+01
             1.4779999999999998E+00    7.3890000000000020E+00    1.0449999999999990E+01
             4.4339999999999984E+00    1.4779999999999998E+00    1.0449999999999990E+01
             4.4339999999999984E+00    4.4329999999999998E+00    1.0449999999999990E+01
             4.4339999999999984E+00    7.3890000000000020E+00    1.0449999999999990E+01
             7.1920000000000002E+00    1.4779999999999998E+00    1.0449999999999990E+01
             7.1920000000000002E+00    4.4329999999999998E+00    1.0449999999999990E+01
             7.1920000000000002E+00    7.3890000000000020E+00    1.0449999999999990E+01
             1.0148000000000001E+01    1.4779999999999998E+00    1.0449999999999990E+01
             1.0148000000000001E+01    4.4329999999999998E+00    1.0449999999999990E+01
             1.0148000000000001E+01    7.3890000000000020E+00    1.0449999999999990E+01
             1.3103999999999999E+01    1.4779999999999998E+00    1.0449999999999990E+01
             1.3103999999999999E+01    4.4329999999999998E+00    1.0449999999999990E+01
             1.3103999999999999E+01    7.3890000000000020E+00    1.0449999999999990E+01
             4.8554000000000022E+00    5.9119000000000002E+00    1.2031799999999997E+01
             9.5280000000000005E+00    5.9137000000000031E+00    1.2033999999999999E+01
             7.1920000000000002E+00    5.9340000000000028E+00    1.2039999999999996E+01
             4.0750319168000013E+00    5.9049488169999993E+00    1.2696844061799995E+01
             1.0293988349500005E+01    5.9062142779000011E+00    1.2716532694499996E+01
             6.0099999686000007E+00    5.9120523853000000E+00    1.2765819797399999E+01
             8.3750478947999998E+00    5.9129627334999988E+00    1.2760746495899998E+01
             5.9788500869000014E+00    5.8882515164999987E+00    1.4094239568500003E+01
             8.4047327064999973E+00    5.8893877816000009E+00    1.4094060897199997E+01
             7.1943473363000026E+00    5.8799164377000031E+00    1.4701118490300003E+01
             7.1912293097000024E+00    5.8521058220999969E+00    1.6050622658199988E+01
             6.3086348447000011E+00    5.8615539361000009E+00    1.6548439364999997E+01
             8.0709262664999990E+00    5.8621389354000009E+00    1.6553588809700006E+01
             7.3119999999999994E+00    5.9340000000000028E+00    2.1042999999999996E+01
             5.8129999999999988E+00    7.4340000000000019E+00    2.2992000000000001E+01
             8.8130000000000024E+00    4.4339999999999984E+00    2.2992000000000001E+01
             5.8129999999999988E+00    4.4329999999999998E+00    2.2992000000000001E+01
             8.8130000000000024E+00    7.4340000000000019E+00    2.2992000000000001E+01
             1.4779999999999998E+00    1.4779999999999998E+00    2.5082000000000001E+01
             1.4779999999999998E+00    4.4329999999999998E+00    2.5082000000000001E+01
             1.4779999999999998E+00    7.3890000000000020E+00    2.5082000000000001E+01
             4.4339999999999984E+00    1.4779999999999998E+00    2.5082000000000001E+01
             4.4339999999999984E+00    4.4329999999999998E+00    2.5082000000000001E+01
             4.4339999999999984E+00    7.3890000000000020E+00    2.5082000000000001E+01
             7.1920000000000002E+00    1.4779999999999998E+00    2.5082000000000001E+01
             7.1920000000000002E+00    4.4329999999999998E+00    2.5082000000000001E+01
             7.1920000000000002E+00    7.3890000000000020E+00    2.5082000000000001E+01
             1.0148000000000001E+01    1.4779999999999998E+00    2.5082000000000001E+01
             1.0148000000000001E+01    4.4329999999999998E+00    2.5082000000000001E+01
             1.0148000000000001E+01    7.3890000000000020E+00    2.5082000000000001E+01
             1.3103999999999999E+01    1.4779999999999998E+00    2.5082000000000001E+01
             1.3103999999999999E+01    4.4329999999999998E+00    2.5082000000000001E+01
             1.3103999999999999E+01    7.3890000000000020E+00    2.5082000000000001E+01
             0.0000000000000000E+00    0.0000000000000000E+00    2.7171999999999997E+01
             0.0000000000000000E+00    2.9550000000000014E+00    2.7171999999999997E+01
             0.0000000000000000E+00    5.9109999999999987E+00    2.7171999999999997E+01
             2.9559999999999995E+00    0.0000000000000000E+00    2.7171999999999997E+01
             2.9559999999999995E+00    2.9550000000000014E+00    2.7171999999999997E+01
             2.9559999999999995E+00    5.9109999999999987E+00    2.7171999999999997E+01
             5.9119999999999990E+00    0.0000000000000000E+00    2.7171999999999997E+01
             5.9119999999999990E+00    2.9550000000000014E+00    2.7171999999999997E+01
             5.9119999999999990E+00    5.9109999999999987E+00    2.7171999999999997E+01
             8.6699999999999999E+00    0.0000000000000000E+00    2.7171999999999997E+01
             8.6699999999999999E+00    2.9550000000000014E+00    2.7171999999999997E+01
             8.6699999999999999E+00    5.9109999999999987E+00    2.7171999999999997E+01
             1.1625999999999998E+01    0.0000000000000000E+00    2.7171999999999997E+01
             1.1625999999999998E+01    2.9550000000000014E+00    2.7171999999999997E+01
             1.1625999999999998E+01    5.9109999999999987E+00    2.7171999999999997E+01
             1.4779999999999998E+00    1.4779999999999998E+00    2.9262000000000008E+01
             1.4779999999999998E+00    4.4329999999999998E+00    2.9262000000000008E+01
             1.4779999999999998E+00    7.3890000000000020E+00    2.9262000000000008E+01
             4.4339999999999984E+00    1.4779999999999998E+00    2.9262000000000008E+01
             4.4339999999999984E+00    4.4329999999999998E+00    2.9262000000000008E+01
             4.4339999999999984E+00    7.3890000000000020E+00    2.9262000000000008E+01
             7.1920000000000002E+00    1.4779999999999998E+00    2.9262000000000008E+01
             7.1920000000000002E+00    4.4329999999999998E+00    2.9262000000000008E+01
             7.1920000000000002E+00    7.3890000000000020E+00    2.9262000000000008E+01
             1.0148000000000001E+01    1.4779999999999998E+00    2.9262000000000008E+01
             1.0148000000000001E+01    4.4329999999999998E+00    2.9262000000000008E+01
             1.0148000000000001E+01    7.3890000000000020E+00    2.9262000000000008E+01
             1.3103999999999999E+01    1.4779999999999998E+00    2.9262000000000008E+01
             1.3103999999999999E+01    4.4329999999999998E+00    2.9262000000000008E+01
             1.3103999999999999E+01    7.3890000000000020E+00    2.9262000000000008E+01
             0.0000000000000000E+00    0.0000000000000000E+00    3.1351999999999990E+01
             0.0000000000000000E+00    2.9550000000000014E+00    3.1351999999999990E+01
             0.0000000000000000E+00    5.9109999999999987E+00    3.1351999999999990E+01
             2.9559999999999995E+00    0.0000000000000000E+00    3.1351999999999990E+01
             2.9559999999999995E+00    2.9550000000000014E+00    3.1351999999999990E+01
             2.9559999999999995E+00    5.9109999999999987E+00    3.1351999999999990E+01
             5.9119999999999990E+00    0.0000000000000000E+00    3.1351999999999990E+01
             5.9119999999999990E+00    2.9550000000000014E+00    3.1351999999999990E+01
             5.9119999999999990E+00    5.9109999999999987E+00    3.1351999999999990E+01
             8.6699999999999999E+00    0.0000000000000000E+00    3.1351999999999990E+01
             8.6699999999999999E+00    2.9550000000000014E+00    3.1351999999999990E+01
             8.6699999999999999E+00    5.9109999999999987E+00    3.1351999999999990E+01
             1.1625999999999998E+01    0.0000000000000000E+00    3.1351999999999990E+01
             1.1625999999999998E+01    2.9550000000000014E+00    3.1351999999999990E+01
             1.1625999999999998E+01    5.9109999999999987E+00    3.1351999999999990E+01
             1.4779999999999998E+00    1.4779999999999998E+00    3.3441999999999986E+01
             1.4779999999999998E+00    4.4329999999999998E+00    3.3441999999999986E+01
             1.4779999999999998E+00    7.3890000000000020E+00    3.3441999999999986E+01
             4.4339999999999984E+00    1.4779999999999998E+00    3.3441999999999986E+01
             4.4339999999999984E+00    4.4329999999999998E+00    3.3441999999999986E+01
             4.4339999999999984E+00    7.3890000000000020E+00    3.3441999999999986E+01
             7.1920000000000002E+00    1.4779999999999998E+00    3.3441999999999986E+01
             7.1920000000000002E+00    4.4329999999999998E+00    3.3441999999999986E+01
             7.1920000000000002E+00    7.3890000000000020E+00    3.3441999999999986E+01
             1.0148000000000001E+01    1.4779999999999998E+00    3.3441999999999986E+01
             1.0148000000000001E+01    4.4329999999999998E+00    3.3441999999999986E+01
             1.0148000000000001E+01    7.3890000000000020E+00    3.3441999999999986E+01
             1.3103999999999999E+01    1.4779999999999998E+00    3.3441999999999986E+01
             1.3103999999999999E+01    4.4329999999999998E+00    3.3441999999999986E+01
             1.3103999999999999E+01    7.3890000000000020E+00    3.3441999999999986E+01
       &END COORD
       &VELOCITY
             0.0000000000000000E+00    0.0000000000000000E+00    0.0000000000000000E+00
             0.0000000000000000E+00    0.0000000000000000E+00    0.0000000000000000E+00
             0.0000000000000000E+00    0.0000000000000000E+00    0.0000000000000000E+00
             0.0000000000000000E+00    0.0000000000000000E+00    0.0000000000000000E+00
             0.0000000000000000E+00    0.0000000000000000E+00    0.0000000000000000E+00
             0.0000000000000000E+00    0.0000000000000000E+00    0.0000000000000000E+00
             0.0000000000000000E+00    0.0000000000000000E+00    0.0000000000000000E+00
             0.0000000000000000E+00    0.0000000000000000E+00    0.0000000000000000E+00
             0.0000000000000000E+00    0.0000000000000000E+00    0.0000000000000000E+00
             0.0000000000000000E+00    0.0000000000000000E+00    0.0000000000000000E+00
             0.0000000000000000E+00    0.0000000000000000E+00    0.0000000000000000E+00
             0.0000000000000000E+00    0.0000000000000000E+00    0.0000000000000000E+00
             0.0000000000000000E+00    0.0000000000000000E+00    0.0000000000000000E+00
             0.0000000000000000E+00    0.0000000000000000E+00    0.0000000000000000E+00
             0.0000000000000000E+00    0.0000000000000000E+00    0.0000000000000000E+00
             0.0000000000000000E+00    0.0000000000000000E+00    0.0000000000000000E+00
             0.0000000000000000E+00    0.0000000000000000E+00    0.0000000000000000E+00
             0.0000000000000000E+00    0.0000000000000000E+00    0.0000000000000000E+00
             0.0000000000000000E+00    0.0000000000000000E+00    0.0000000000000000E+00
             0.0000000000000000E+00    0.0000000000000000E+00    0.0000000000000000E+00
             0.0000000000000000E+00    0.0000000000000000E+00    0.0000000000000000E+00
             0.0000000000000000E+00    0.0000000000000000E+00    0.0000000000000000E+00
             0.0000000000000000E+00    0.0000000000000000E+00    0.0000000000000000E+00
             0.0000000000000000E+00    0.0000000000000000E+00    0.0000000000000000E+00
             0.0000000000000000E+00    0.0000000000000000E+00    0.0000000000000000E+00
             0.0000000000000000E+00    0.0000000000000000E+00    0.0000000000000000E+00
             0.0000000000000000E+00    0.0000000000000000E+00    0.0000000000000000E+00
             0.0000000000000000E+00    0.0000000000000000E+00    0.0000000000000000E+00
             0.0000000000000000E+00    0.0000000000000000E+00    0.0000000000000000E+00
             0.0000000000000000E+00    0.0000000000000000E+00    0.0000000000000000E+00
             0.0000000000000000E+00    0.0000000000000000E+00    0.0000000000000000E+00
             0.0000000000000000E+00    0.0000000000000000E+00    0.0000000000000000E+00
             0.0000000000000000E+00    0.0000000000000000E+00    0.0000000000000000E+00
             0.0000000000000000E+00    0.0000000000000000E+00    0.0000000000000000E+00
             0.0000000000000000E+00    0.0000000000000000E+00    0.0000000000000000E+00
             0.0000000000000000E+00    0.0000000000000000E+00    0.0000000000000000E+00
             0.0000000000000000E+00    0.0000000000000000E+00    0.0000000000000000E+00
             0.0000000000000000E+00    0.0000000000000000E+00    0.0000000000000000E+00
             0.0000000000000000E+00    0.0000000000000000E+00    0.0000000000000000E+00
             0.0000000000000000E+00    0.0000000000000000E+00    0.0000000000000000E+00
             0.0000000000000000E+00    0.0000000000000000E+00    0.0000000000000000E+00
             0.0000000000000000E+00    0.0000000000000000E+00    0.0000000000000000E+00
             0.0000000000000000E+00    0.0000000000000000E+00    0.0000000000000000E+00
             0.0000000000000000E+00    0.0000000000000000E+00    0.0000000000000000E+00
             0.0000000000000000E+00    0.0000000000000000E+00    0.0000000000000000E+00
             0.0000000000000000E+00    0.0000000000000000E+00    0.0000000000000000E+00
             0.0000000000000000E+00    0.0000000000000000E+00    0.0000000000000000E+00
             0.0000000000000000E+00    0.0000000000000000E+00    0.0000000000000000E+00
             0.0000000000000000E+00    0.0000000000000000E+00    0.0000000000000000E+00
             0.0000000000000000E+00    0.0000000000000000E+00    0.0000000000000000E+00
             0.0000000000000000E+00    0.0000000000000000E+00    0.0000000000000000E+00
             0.0000000000000000E+00    0.0000000000000000E+00    0.0000000000000000E+00
             0.0000000000000000E+00    0.0000000000000000E+00    0.0000000000000000E+00
             0.0000000000000000E+00    0.0000000000000000E+00    0.0000000000000000E+00
             0.0000000000000000E+00    0.0000000000000000E+00    0.0000000000000000E+00
             0.0000000000000000E+00    0.0000000000000000E+00    0.0000000000000000E+00
             0.0000000000000000E+00    0.0000000000000000E+00    0.0000000000000000E+00
             0.0000000000000000E+00    0.0000000000000000E+00    0.0000000000000000E+00
             0.0000000000000000E+00    0.0000000000000000E+00    0.0000000000000000E+00
             0.0000000000000000E+00    0.0000000000000000E+00    0.0000000000000000E+00
             0.0000000000000000E+00    0.0000000000000000E+00    0.0000000000000000E+00
             0.0000000000000000E+00    0.0000000000000000E+00    0.0000000000000000E+00
             0.0000000000000000E+00    0.0000000000000000E+00    0.0000000000000000E+00
             0.0000000000000000E+00    0.0000000000000000E+00    0.0000000000000000E+00
             0.0000000000000000E+00    0.0000000000000000E+00    0.0000000000000000E+00
             0.0000000000000000E+00    0.0000000000000000E+00    0.0000000000000000E+00
             0.0000000000000000E+00    0.0000000000000000E+00    0.0000000000000000E+00
             0.0000000000000000E+00    0.0000000000000000E+00    0.0000000000000000E+00
             0.0000000000000000E+00    0.0000000000000000E+00    0.0000000000000000E+00
             0.0000000000000000E+00    0.0000000000000000E+00    0.0000000000000000E+00
             0.0000000000000000E+00    0.0000000000000000E+00    0.0000000000000000E+00
             0.0000000000000000E+00    0.0000000000000000E+00    0.0000000000000000E+00
             0.0000000000000000E+00    0.0000000000000000E+00    0.0000000000000000E+00
             0.0000000000000000E+00    0.0000000000000000E+00    0.0000000000000000E+00
             0.0000000000000000E+00    0.0000000000000000E+00    0.0000000000000000E+00
             0.0000000000000000E+00    0.0000000000000000E+00    0.0000000000000000E+00
             0.0000000000000000E+00    0.0000000000000000E+00    0.0000000000000000E+00
             0.0000000000000000E+00    0.0000000000000000E+00    0.0000000000000000E+00
             0.0000000000000000E+00    0.0000000000000000E+00    0.0000000000000000E+00
             0.0000000000000000E+00    0.0000000000000000E+00    0.0000000000000000E+00
             0.0000000000000000E+00    0.0000000000000000E+00    0.0000000000000000E+00
             0.0000000000000000E+00    0.0000000000000000E+00    0.0000000000000000E+00
             0.0000000000000000E+00    0.0000000000000000E+00    0.0000000000000000E+00
             0.0000000000000000E+00    0.0000000000000000E+00    0.0000000000000000E+00
             0.0000000000000000E+00    0.0000000000000000E+00    0.0000000000000000E+00
             0.0000000000000000E+00    0.0000000000000000E+00    0.0000000000000000E+00
             0.0000000000000000E+00    0.0000000000000000E+00    0.0000000000000000E+00
             0.0000000000000000E+00    0.0000000000000000E+00    0.0000000000000000E+00
             0.0000000000000000E+00    0.0000000000000000E+00    0.0000000000000000E+00
             0.0000000000000000E+00    0.0000000000000000E+00    0.0000000000000000E+00
             0.0000000000000000E+00    0.0000000000000000E+00    0.0000000000000000E+00
             0.0000000000000000E+00    0.0000000000000000E+00    0.0000000000000000E+00
             0.0000000000000000E+00    0.0000000000000000E+00    0.0000000000000000E+00
             0.0000000000000000E+00    0.0000000000000000E+00    0.0000000000000000E+00
             0.0000000000000000E+00    0.0000000000000000E+00    0.0000000000000000E+00
             0.0000000000000000E+00    0.0000000000000000E+00    0.0000000000000000E+00
             0.0000000000000000E+00    0.0000000000000000E+00    0.0000000000000000E+00
             0.0000000000000000E+00    0.0000000000000000E+00    0.0000000000000000E+00
             0.0000000000000000E+00    0.0000000000000000E+00    0.0000000000000000E+00
             0.0000000000000000E+00    0.0000000000000000E+00    0.0000000000000000E+00
             0.0000000000000000E+00    0.0000000000000000E+00    0.0000000000000000E+00
             0.0000000000000000E+00    0.0000000000000000E+00    0.0000000000000000E+00
             0.0000000000000000E+00    0.0000000000000000E+00    0.0000000000000000E+00
             0.0000000000000000E+00    0.0000000000000000E+00    0.0000000000000000E+00
             0.0000000000000000E+00    0.0000000000000000E+00    0.0000000000000000E+00
             0.0000000000000000E+00    0.0000000000000000E+00    0.0000000000000000E+00
             0.0000000000000000E+00    0.0000000000000000E+00    0.0000000000000000E+00
             0.0000000000000000E+00    0.0000000000000000E+00    0.0000000000000000E+00
             0.0000000000000000E+00    0.0000000000000000E+00    0.0000000000000000E+00
             0.0000000000000000E+00    0.0000000000000000E+00    0.0000000000000000E+00
             0.0000000000000000E+00    0.0000000000000000E+00    0.0000000000000000E+00
             0.0000000000000000E+00    0.0000000000000000E+00    0.0000000000000000E+00
             0.0000000000000000E+00    0.0000000000000000E+00    0.0000000000000000E+00
             0.0000000000000000E+00    0.0000000000000000E+00    0.0000000000000000E+00
             0.0000000000000000E+00    0.0000000000000000E+00    0.0000000000000000E+00
             0.0000000000000000E+00    0.0000000000000000E+00    0.0000000000000000E+00
             0.0000000000000000E+00    0.0000000000000000E+00    0.0000000000000000E+00
             0.0000000000000000E+00    0.0000000000000000E+00    0.0000000000000000E+00
             0.0000000000000000E+00    0.0000000000000000E+00    0.0000000000000000E+00
             0.0000000000000000E+00    0.0000000000000000E+00    0.0000000000000000E+00
             0.0000000000000000E+00    0.0000000000000000E+00    0.0000000000000000E+00
             0.0000000000000000E+00    0.0000000000000000E+00    0.0000000000000000E+00
             0.0000000000000000E+00    0.0000000000000000E+00    0.0000000000000000E+00
             0.0000000000000000E+00    0.0000000000000000E+00    0.0000000000000000E+00
             0.0000000000000000E+00    0.0000000000000000E+00    0.0000000000000000E+00
             0.0000000000000000E+00    0.0000000000000000E+00    0.0000000000000000E+00
             0.0000000000000000E+00    0.0000000000000000E+00    0.0000000000000000E+00
             0.0000000000000000E+00    0.0000000000000000E+00    0.0000000000000000E+00
             0.0000000000000000E+00    0.0000000000000000E+00    0.0000000000000000E+00
             0.0000000000000000E+00    0.0000000000000000E+00    0.0000000000000000E+00
             0.0000000000000000E+00    0.0000000000000000E+00    0.0000000000000000E+00
             0.0000000000000000E+00    0.0000000000000000E+00    0.0000000000000000E+00
             0.0000000000000000E+00    0.0000000000000000E+00    0.0000000000000000E+00
             0.0000000000000000E+00    0.0000000000000000E+00    0.0000000000000000E+00
             0.0000000000000000E+00    0.0000000000000000E+00    0.0000000000000000E+00
             0.0000000000000000E+00    0.0000000000000000E+00    0.0000000000000000E+00
             0.0000000000000000E+00    0.0000000000000000E+00    0.0000000000000000E+00
             0.0000000000000000E+00    0.0000000000000000E+00    0.0000000000000000E+00
             0.0000000000000000E+00    0.0000000000000000E+00    0.0000000000000000E+00
             0.0000000000000000E+00    0.0000000000000000E+00    0.0000000000000000E+00
             0.0000000000000000E+00    0.0000000000000000E+00    0.0000000000000000E+00
             0.0000000000000000E+00    0.0000000000000000E+00    0.0000000000000000E+00
             0.0000000000000000E+00    0.0000000000000000E+00    0.0000000000000000E+00
             0.0000000000000000E+00    0.0000000000000000E+00    0.0000000000000000E+00