     183
 i =       0, E =    -4015.4046574108
 Au         0.0000498611        0.0004120572        0.0005216813
 Au         0.0000304445        2.9554120471        0.0003498621
 Au         0.0000110213        5.9114120369        0.0001779848
 Au         2.9560498599        0.0004314736        0.0004636904
 Au         2.9560304433        2.9554314635        0.0002918712
 Au         2.9560110201        5.9114314534        0.0001199939
 Au         5.9120498586        0.0004508901        0.0004056996
 Au         5.9120304420        2.9554508799        0.0002338804
 Au         5.9120110188        5.9114508698        0.0000620030
 Au         8.6700498574        0.0004690059        0.0003515931
 Au         8.6700304408        2.9554689958        0.0001797739
 Au         8.6700110176        5.9114689857        0.0000078966
 Au        11.6260498562        0.0004884224        0.0002936022
 Au        11.6260304395        2.9554884123        0.0001217830
 Au        11.6260110164        5.9114884021       -0.0000500943
 Au         1.4780811490        1.4785432844        2.0904067393
 Au         1.4780617324        4.4335432743        2.0902349201
 Au         1.4780423092        7.3895432642        2.0900630428
 Au         4.4340811477        1.4785627009        2.0903487485
 Au         4.4340617311        4.4335626908        2.0901769293
 Au         4.4340423079        7.3895626806        2.0900050519
 Au         7.1920811465        1.4785808168        2.0902946420
 Au         7.1920617299        4.4335808066        2.0901228228
 Au         7.1920423067        7.3895807965        2.0899509454
 Au        10.1480811453        1.4786002332        2.0902366511
 Au        10.1480617286        4.4336002231        2.0900648319
 Au        10.1480423055        7.3896002130        2.0898929546
 Au        13.1040811440        1.4786196496        2.0901786603
 Au        13.1040617274        4.4336196395        2.0900068411
 Au        13.1040423042        7.3896196294        2.0898349637
 Au         0.0001318613        0.0006551054        4.1805216655
 Au         0.0001124446        2.9556550953        4.1803498464
 Au         0.0000930215        5.9116550851        4.1801779690
 Au         2.9561318600        0.0006745218        4.1804636747
 Au         2.9561124434        2.9556745117        4.1802918555
 Au         2.9560930202        5.9116745016        4.1801199782
 Au         5.9121318587        0.0006939383        4.1804056838
 Au         5.9121124421        2.9556939281        4.1802338646
 Au         5.9120930189        5.9116939180        4.1800619873
 Au         8.6701318575        0.0007120541        4.1803515773
 Au         8.6701124409        2.9557120440        4.1801797582
 Au         8.6700930177        5.9117120339        4.1800078808
 Au        11.6261318563        0.0007314706        4.1802935865
 Au        11.6261124397        2.9557314605        4.1801217673
 Au        11.6260930165        5.9117314503        4.1799498900
 Au         1.4781631491        1.4787863326        6.2704067236
 Au         1.4781437325        4.4337863225        6.2702349044
 Au         1.4781243093        7.3897863124        6.2700630270
 Au         4.4341631478        1.4788057491        6.2703487327
 Au         4.4341437312        4.4338057390        6.2701769135
 Au         4.4341243080        7.3898057288        6.2700050362
 Au         7.1921631466        1.4788238650        6.2702946262
 Au         7.1921437300        4.4338238548        6.2701228070
 Au         7.1921243068        7.3898238447        6.2699509297
 Au        10.1481631454        1.4788432814        6.2702366354
 Au        10.1481437288        4.4338432713        6.2700648162
 Au        10.1481243056        7.3898432612        6.2698929389
 Au        13.1041631441        1.4788626978        6.2701786445
 Au        13.1041437275        4.4338626877        6.2700068253
 Au        13.1041243043        7.3898626776        6.2698349480
 Au         0.0002138614        0.0008981536        8.3605216498
 Au         0.0001944447        2.9558981434        8.3603498306
 Au         0.0001750216        5.9118981333        8.3601779533
 Au         2.9562138601        0.0009175700        8.3604636589
 Au         2.9561944435        2.9559175599        8.3602918398
 Au         2.9561750203        5.9119175498        8.3601199624
 Au         5.9122138588        0.0009369864        8.3604056681
 Au         5.9121944422        2.9559369763        8.3602338489
 Au         5.9121750190        5.9119369662        8.3600619716
 Au         8.6702138577        0.0009551023        8.3603515616
 Au         8.6701944410        2.9559550922        8.3601797424
 Au         8.6701750179        5.9119550821        8.3600078651
 Au        11.6262138564        0.0009745188        8.3602935708
 Au        11.6261944398        2.9559745087        8.3601217516
 Au        11.6261750166        5.9119744985        8.3599498742
 Au         1.4782451492        1.4790293808       10.4504067078
 Au         1.4782257326        4.4340293707       10.4502348886
 Au         1.4782063094        7.3900293606       10.4500630113
 Au         4.4342451479        1.4790487973       10.4503487170
 Au         4.4342257313        4.4340487871       10.4501768978
 Au         4.4342063081        7.3900487770       10.4500050205
 Au         7.1922451467        1.4790669131       10.4502946105
 Au         7.1922257301        4.4340669030       10.4501227913
 Au         7.1922063069        7.3900668929       10.4499509140
 Au        10.1482451455        1.4790863296       10.4502366196
 Au        10.1482257289        4.4340863195       10.4500648005
 Au        10.1482063057        7.3900863093       10.4498929231
 Au        13.1042451442        1.4791057460       10.4501786288
 Au        13.1042257276        4.4341057359       10.4500068096
 Au        13.1042063044        7.3901057258       10.4498349323
  N         4.8554470540        5.9125935336       12.0319826940
  N         9.5282470781        5.9145243444       12.0339909027
  N         7.1922470588        5.9351593492       12.0400355093
  H         7.2088751795        5.9061399361       12.6735474293
  H         7.1735536922        5.9061822023       12.6908151990
  C         7.1964107112        5.9154835331       12.7483730716
  C         7.1863849996        5.9161740118       12.7542331827
  N         7.1591121652        5.8963607629       14.0828846544
  N         7.1602540239        5.8977646332       14.0970927660
  C         7.1468735491        5.8882227395       14.7101989044
  N         7.9390264311        5.8627126644       15.6842211992
  H         6.8872924748        5.8662180025       16.2711036471
  H         7.4167027997        5.8543987229       16.6420935809
 Au         7.2524236730        5.9356828332       21.0430354754
 Au         5.8629536415        7.3147877468       22.9919874324
 Au         8.7419717625        4.4358058721       22.9920936905
 Au         5.8629717702        4.4347877562       22.9921478551
 Au         8.7419536403        7.3148058627       22.9919333259
 Au         1.4785321888        1.4798801658       25.0824066527
 Au         1.4785127722        4.4348801557       25.0822348335
 Au         1.4784933490        7.3908801455       25.0820629562
 Au         4.4345321876        1.4798995822       25.0823486619
 Au         4.4345127709        4.4348995721       25.0821768427
 Au         4.4344933478        7.3908995620       25.0820049654
 Au         7.1925321864        1.4799176981       25.0822945554
 Au         7.1925127698        4.4349176880       25.0821227362
 Au         7.1924933466        7.3909176779       25.0819508589
 Au        10.1485321851        1.4799371145       25.0822365645
 Au        10.1485127685        4.4349371044       25.0820647454
 Au        10.1484933453        7.3909370943       25.0818928680
 Au        13.1045321838        1.4799565310       25.0821785737
 Au        13.1045127672        4.4349565209       25.0820067545
 Au        13.1044933440        7.3909565107       25.0818348772
 Au         0.0005829011        0.0019919867       27.1725215790
 Au         0.0005634845        2.9569919766       27.1723497598
 Au         0.0005440613        5.9129919665       27.1721778824
 Au         2.9565828998        0.0020114032       27.1724635881
 Au         2.9565634832        2.9570113930       27.1722917689
 Au         2.9565440600        5.9130113829       27.1721198916
 Au         5.9125828986        0.0020308196       27.1724055973
 Au         5.9125634820        2.9570308095       27.1722337781
 Au         5.9125440588        5.9130307994       27.1720619007
 Au         8.6705828974        0.0020489355       27.1723514908
 Au         8.6705634808        2.9570489254       27.1721796716
 Au         8.6705440576        5.9130489152       27.1720077942
 Au        11.6265828961        0.0020683519       27.1722934999
 Au        11.6265634795        2.9570683418       27.1721216807
 Au        11.6265440563        5.9130683317       27.1719498034
 Au         1.4786141889        1.4801232140       29.2624066370
 Au         1.4785947723        4.4351232039       29.2622348178
 Au         1.4785753491        7.3911231937       29.2620629405
 Au         4.4346141877        1.4801426304       29.2623486461
 Au         4.4345947710        4.4351426203       29.2621768270
 Au         4.4345753479        7.3911426102       29.2620049496
 Au         7.1926141865        1.4801607463       29.2622945397
 Au         7.1925947699        4.4351607362       29.2621227205
 Au         7.1925753467        7.3911607261       29.2619508431
 Au        10.1486141852        1.4801801627       29.2622365488
 Au        10.1485947686        4.4351801526       29.2620647296
 Au        10.1485753454        7.3911801425       29.2618928523
 Au        13.1046141840        1.4801995792       29.2621785579
 Au        13.1045947673        4.4351995691       29.2620067388
 Au        13.1045753442        7.3911995589       29.2618348614
 Au         0.0006649012        0.0022350349       31.3525215632
 Au         0.0006454846        2.9572350248       31.3523497440
 Au         0.0006260614        5.9132350147       31.3521778667
 Au         2.9566648999        0.0022544514       31.3524635724
 Au         2.9566454833        2.9572544412       31.3522917532
 Au         2.9566260601        5.9132544311       31.3521198758
 Au         5.9126648987        0.0022738678       31.3524055815
 Au         5.9126454821        2.9572738577       31.3522337623
 Au         5.9126260589        5.9132738476       31.3520618850
 Au         8.6706648975        0.0022919837       31.3523514750
 Au         8.6706454809        2.9572919736       31.3521796558
 Au         8.6706260577        5.9132919634       31.3520077785
 Au        11.6266648962        0.0023114001       31.3522934842
 Au        11.6266454796        2.9573113900       31.3521216650
 Au        11.6266260564        5.9133113799       31.3519497876
 Au         1.4786961890        1.4803662622       33.4424066213
 Au         1.4786767724        4.4353662520       33.4422348021
 Au         1.4786573492        7.3913662419       33.4420629247
 Au         4.4346961878        1.4803856786       33.4423486304
 Au         4.4346767712        4.4353856685       33.4421768112
 Au         4.4346573480        7.3913856584       33.4420049339
 Au         7.1926961866        1.4804037945       33.4422945239
 Au         7.1926767700        4.4354037844       33.4421227047
 Au         7.1926573468        7.3914037743       33.4419508274
 Au        10.1486961853        1.4804232109       33.4422365331
 Au        10.1486767687        4.4354232008       33.4420647139
 Au        10.1486573455        7.3914231907       33.4418928365
 Au        13.1046961841        1.4804426274       33.4421785422
 Au        13.1046767674        4.4354426173       33.4420067230
 Au        13.1046573443        7.3914426071       33.4418348457
     183
 i =       1, E =    -5662.9763591599
 Au         0.0000479728        0.0003964516        0.0005019239
 Au         0.0000292915        2.9553964418        0.0003366120
 Au         0.0000106039        5.9113964321        0.0001712440
 Au         2.9560479716        0.0004151327        0.0004461293
 Au         2.9560292903        2.9554151229        0.0002808174
 Au         2.9560106027        5.9114151132        0.0001154494
 Au         5.9120479703        0.0004338137        0.0003903347
 Au         5.9120292891        2.9554338040        0.0002250228
 Au         5.9120106015        5.9114337943        0.0000596548
 Au         8.6700479692        0.0004512435        0.0003382774
 Au         8.6700292879        2.9554512338        0.0001729654
 Au         8.6700106004        5.9114512241        0.0000075975
 Au        11.6260479680        0.0004699246        0.0002824828
 Au        11.6260292867        2.9554699149        0.0001171708
 Au        11.6260105991        5.9114699052       -0.0000481971
 Au         1.4780780757        1.4785227089        2.0903913351
 Au         1.4780593944        4.4335226992        2.0902260231
 Au         1.4780407068        7.3895226894        2.0900606552
 Au         4.4340780744        1.4785413900        2.0903355405
 Au         4.4340593932        4.4335413803        2.0901702285
 Au         4.4340407056        7.3895413705        2.0900048606
 Au         7.1920780733        1.4785588198        2.0902834832
 Au         7.1920593920        4.4335588101        2.0901181712
 Au         7.1920407045        7.3895588003        2.0899528033
 Au        10.1480780721        1.4785775009        2.0902276886
 Au        10.1480593908        4.4335774912        2.0900623766
 Au        10.1480407032        7.3895774814        2.0898970087
 Au        13.1040780709        1.4785961820        2.0901718940
 Au        13.1040593896        4.4335961723        2.0900065820
 Au        13.1040407020        7.3895961625        2.0898412141
 Au         0.0001268673        0.0006302949        4.1805019088
 Au         0.0001081861        2.9556302852        4.1803365968
 Au         0.0000894985        5.9116302755        4.1801712289
 Au         2.9561268661        0.0006489760        4.1804461142
 Au         2.9561081849        2.9556489663        4.1802808022
 Au         2.9560894973        5.9116489565        4.1801154343
 Au         5.9121268649        0.0006676571        4.1803903196
 Au         5.9121081836        2.9556676474        4.1802250076
 Au         5.9120894961        5.9116676376        4.1800596397
 Au         8.6701268638        0.0006850869        4.1803382623
 Au         8.6701081825        2.9556850772        4.1801729503
 Au         8.6700894949        5.9116850674        4.1800075824
 Au        11.6261268626        0.0007037680        4.1802824677
 Au        11.6261081813        2.9557037583        4.1801171557
 Au        11.6260894937        5.9117037485        4.1799517878
 Au         1.4781569702        1.4787565523        6.2703913200
 Au         1.4781382890        4.4337565425        6.2702260080
 Au         1.4781196014        7.3897565328        6.2700606401
 Au         4.4341569690        1.4787752334        6.2703355254
 Au         4.4341382877        4.4337752236        6.2701702134
 Au         4.4341196002        7.3897752139        6.2700048455
 Au         7.1921569679        1.4787926632        6.2702834680
 Au         7.1921382866        4.4337926534        6.2701181560
 Au         7.1921195990        7.3897926437        6.2699527881
 Au        10.1481569667        1.4788113443        6.2702276734
 Au        10.1481382854        4.4338113345        6.2700623614
 Au        10.1481195978        7.3898113248        6.2698969935
 Au        13.1041569654        1.4788300254        6.2701718788
 Au        13.1041382842        4.4338300156        6.2700065668
 Au        13.1041195966        7.3898300059        6.2698411989
 Au         0.0002057619        0.0008641383        8.3605018936
 Au         0.0001870806        2.9558641285        8.3603365817
 Au         0.0001683931        5.9118641188        8.3601712137
 Au         2.9562057607        0.0008828194        8.3604460990
 Au         2.9561870794        2.9558828096        8.3602807871
 Au         2.9561683918        5.9118827999        8.3601154191
 Au         5.9122057595        0.0009015005        8.3603903044
 Au         5.9121870782        2.9559014907        8.3602249925
 Au         5.9121683906        5.9119014810        8.3600596246
 Au         8.6702057583        0.0009189303        8.3603382471
 Au         8.6701870771        2.9559189205        8.3601729351
 Au         8.6701683895        5.9119189108        8.3600075672
 Au        11.6262057571        0.0009376114        8.3602824525
 Au        11.6261870759        2.9559376016        8.3601171405
 Au        11.6261683883        5.9119375919        8.3599517726
 Au         1.4782358648        1.4789903956       10.4503913048
 Au         1.4782171835        4.4339903859       10.4502259928
 Au         1.4781984959        7.3899903762       10.4500606249
 Au         4.4342358636        1.4790090767       10.4503355102
 Au         4.4342171823        4.4340090670       10.4501701982
 Au         4.4341984947        7.3900090573       10.4500048303
 Au         7.1922358624        1.4790265065       10.4502834529
 Au         7.1922171812        4.4340264968       10.4501181409
 Au         7.1921984936        7.3900264871       10.4499527730
 Au        10.1482358612        1.4790451876       10.4502276583
 Au        10.1482171800        4.4340451779       10.4500623463
 Au        10.1481984924        7.3900451681       10.4498969784
 Au        13.1042358600        1.4790638687       10.4501718637
 Au        13.1042171787        4.4340638590       10.4500065517
 Au        13.1041984912        7.3900638492       10.4498411838
  N         4.8554452720        5.9125672678       12.0319757749
  N         9.5282377207        5.9144931245       12.0339912472
  N         7.1922377021        5.9351154418       12.0400341645
  H         7.0940945248        5.9057793843       12.6679327992
  H         7.2865672543        5.9044913681       12.6845722057
  C         7.6083425290        5.8836230621       12.4887186970
  C         6.7757934254        5.9497860686       13.0286417418
  N         7.0717038378        5.8428439755       13.5417585749
  N         7.2500908690        5.9506546658       14.6383707924
  C         7.1486790001        5.8879114789       14.7100271322
  N         7.9107071849        5.8623101139       15.6980977858
  H         6.8653745410        5.8660412930       16.2816056680
  H         7.4414819323        5.8546919369       16.6387436753
 Au         7.2546799746        5.9356191002       21.0430341319
 Au         5.8610617746        7.3193026073       22.9919879084
 Au         8.7446617761        4.4357374793       22.9920901422
 Au         5.8610792167        4.4347200495       22.9921422555
 Au         8.7446443403        7.3193200371       22.9919358510
 Au         1.4785120335        1.4798089593       25.0823912518
 Au         1.4784933523        4.4348089496       25.0822259398
 Au         1.4784746647        7.3908089398       25.0820605719
 Au         4.4345120323        1.4798276404       25.0823354572
 Au         4.4344933510        4.4348276307       25.0821701452
 Au         4.4344746635        7.3908276209       25.0820047773
 Au         7.1925120312        1.4798450702       25.0822833999
 Au         7.1924933499        4.4348450604       25.0821180879
 Au         7.1924746623        7.3908450507       25.0819527200
 Au        10.1485120299        1.4798637513       25.0822276053
 Au        10.1484933487        4.4348637415       25.0820622933
 Au        10.1484746611        7.3908637318       25.0818969254
 Au        13.1045120287        1.4798824324       25.0821718107
 Au        13.1044933475        4.4348824226       25.0820064987
 Au        13.1044746599        7.3908824129       25.0818411308
 Au         0.0005608252        0.0019165453       27.1725018255
 Au         0.0005421439        2.9569165356       27.1723365135
 Au         0.0005234564        5.9129165258       27.1721711456
 Au         2.9565608240        0.0019352264       27.1724460309
 Au         2.9565421427        2.9569352167       27.1722807189
 Au         2.9565234551        5.9129352069       27.1721153510
 Au         5.9125608228        0.0019539075       27.1723902363
 Au         5.9125421415        2.9569538977       27.1722249243
 Au         5.9125234539        5.9129538880       27.1720595564
 Au         8.6705608216        0.0019713373       27.1723381790
 Au         8.6705421404        2.9569713275       27.1721728670
 Au         8.6705234528        5.9129713178       27.1720074991
 Au        11.6265608204        0.0019900184       27.1722823844
 Au        11.6265421392        2.9569900086       27.1721170724
 Au        11.6265234516        5.9129899989       27.1719517045
 Au         1.4785909281        1.4800428027       29.2623912367
 Au         1.4785722468        4.4350427929       29.2622259247
 Au         1.4785535592        7.3910427832       29.2620605568
 Au         4.4345909269        1.4800614837       29.2623354421
 Au         4.4345722456        4.4350614740       29.2621701301
 Au         4.4345535580        7.3910614643       29.2620047622
 Au         7.1925909257        1.4800789135       29.2622833847
 Au         7.1925722445        4.4350789038       29.2621180727
 Au         7.1925535569        7.3910788941       29.2619527048
 Au        10.1485909245        1.4800975946       29.2622275901
 Au        10.1485722433        4.4350975849       29.2620622781
 Au        10.1485535557        7.3910975752       29.2618969102
 Au        13.1045909233        1.4801162757       29.2621717955
 Au        13.1045722420        4.4351162660       29.2620064835
 Au        13.1045535545        7.3911162562       29.2618411156
 Au         0.0006397198        0.0021503887       31.3525018103
 Au         0.0006210385        2.9571503789       31.3523364984
 Au         0.0006023509        5.9131503692       31.3521711304
 Au         2.9566397186        0.0021690697       31.3524460157
 Au         2.9566210373        2.9571690600       31.3522807038
 Au         2.9566023497        5.9131690503       31.3521153358
 Au         5.9126397173        0.0021877508       31.3523902211
 Au         5.9126210361        2.9571877411       31.3522249092
 Au         5.9126023485        5.9131877314       31.3520595412
 Au         8.6706397162        0.0022051806       31.3523381638
 Au         8.6706210349        2.9572051709       31.3521728518
 Au         8.6706023474        5.9132051612       31.3520074839
 Au        11.6266397150        0.0022238617       31.3522823692
 Au        11.6266210337        2.9572238520       31.3521170572
 Au        11.6266023461        5.9132238423       31.3519516893
 Au         1.4786698227        1.4802766460       33.4423912215
 Au         1.4786511414        4.4352766363       33.4422259095
 Au         1.4786324538        7.3912766265       33.4420605416
 Au         4.4346698214        1.4802953271       33.4423354269
 Au         4.4346511402        4.4352953174       33.4421701149
 Au         4.4346324526        7.3912953076       33.4420047470
 Au         7.1926698203        1.4803127569       33.4422833696
 Au         7.1926511390        4.4353127472       33.4421180576
 Au         7.1926324515        7.3913127374       33.4419526897
 Au        10.1486698191        1.4803314380       33.4422275750
 Au        10.1486511378        4.4353314283       33.4420622630
 Au        10.1486324502        7.3913314185       33.4418968951
 Au        13.1046698179        1.4803501191       33.4421717804
 Au        13.1046511366        4.4353501093       33.4420064684
 Au        13.1046324490        7.3913500996       33.4418411005
     183
 i =       2, E =    -5714.1212096644
 Au         0.0000491622        0.0004062813        0.0005143688
 Au         0.0000300178        2.9554062714        0.0003449580
 Au         0.0000108669        5.9114062614        0.0001754899
 Au         2.9560491610        0.0004254256        0.0004571908
 Au         2.9560300165        2.9554254156        0.0002877800
 Au         2.9560108656        5.9114254056        0.0001183119
 Au         5.9120491597        0.0004445699        0.0004000128
 Au         5.9120300153        2.9554445599        0.0002306021
 Au         5.9120108644        5.9114445499        0.0000611339
 Au         8.6700491586        0.0004624318        0.0003466648
 Au         8.6700300141        2.9554624219        0.0001772540
 Au         8.6700108632        5.9114624119        0.0000077859
 Au        11.6260491573        0.0004815761        0.0002894868
 Au        11.6260300129        2.9554815661        0.0001200760
 Au        11.6260108619        5.9114815562       -0.0000493921
 Au         1.4780800115        1.4785356692        2.0904010380
 Au         1.4780608670        4.4335356592        2.0902316272
 Au         1.4780417161        7.3895356492        2.0900621591
 Au         4.4340800102        1.4785548134        2.0903438600
 Au         4.4340608658        4.4335548035        2.0901744492
 Au         4.4340417149        7.3895547935        2.0900049811
 Au         7.1920800091        1.4785726754        2.0902905119
 Au         7.1920608646        4.4335726654        2.0901211012
 Au         7.1920417137        7.3895726554        2.0899516331
 Au        10.1480800078        1.4785918197        2.0902333340
 Au        10.1480608634        4.4335918097        2.0900639232
 Au        10.1480417125        7.3895917997        2.0898944551
 Au        13.1040800066        1.4786109639        2.0901761560
 Au        13.1040608621        4.4336109540        2.0900067452
 Au        13.1040417112        7.3896109440        2.0898372771
 Au         0.0001300129        0.0006459227        4.1805143533
 Au         0.0001108685        2.9556459127        4.1803449425
 Au         0.0000917176        5.9116459027        4.1801754744
 Au         2.9561300117        0.0006650670        4.1804571753
 Au         2.9561108672        2.9556650570        4.1802877645
 Au         2.9560917163        5.9116650470        4.1801182964
 Au         5.9121300104        0.0006842112        4.1803999973
 Au         5.9121108660        2.9556842013        4.1802305865
 Au         5.9120917151        5.9116841913        4.1800611184
 Au         8.6701300093        0.0007020732        4.1803466492
 Au         8.6701108648        2.9557020632        4.1801772385
 Au         8.6700917139        5.9117020532        4.1800077704
 Au        11.6261300080        0.0007212175        4.1802894713
 Au        11.6261108636        2.9557212075        4.1801200605
 Au        11.6260917127        5.9117211975        4.1799505924
 Au         1.4781608622        1.4787753105        6.2704010225
 Au         1.4781417178        4.4337753005        6.2702316117
 Au         1.4781225668        7.3897752906        6.2700621436
 Au         4.4341608610        1.4787944548        6.2703438445
 Au         4.4341417165        4.4337944448        6.2701744337
 Au         4.4341225656        7.3897944348        6.2700049656
 Au         7.1921608598        1.4788123167        6.2702904964
 Au         7.1921417153        4.4338123068        6.2701210856
 Au         7.1921225644        7.3898122968        6.2699516175
 Au        10.1481608585        1.4788314610        6.2702333184
 Au        10.1481417141        4.4338314510        6.2700639077
 Au        10.1481225632        7.3898314411        6.2698944395
 Au        13.1041608573        1.4788506053        6.2701761404
 Au        13.1041417128        4.4338505953        6.2700067297
 Au        13.1041225619        7.3898505853        6.2698372616
 Au         0.0002108636        0.0008855640        8.3605143378
 Au         0.0001917192        2.9558855541        8.3603449270
 Au         0.0001725683        5.9118855441        8.3601754589
 Au         2.9562108624        0.0009047083        8.3604571598
 Au         2.9561917179        2.9559046983        8.3602877490
 Au         2.9561725670        5.9119046884        8.3601182809
 Au         5.9122108611        0.0009238526        8.3603999818
 Au         5.9121917167        2.9559238426        8.3602305710
 Au         5.9121725658        5.9119238326        8.3600611029
 Au         8.6702108600        0.0009417146        8.3603466337
 Au         8.6701917155        2.9559417046        8.3601772229
 Au         8.6701725646        5.9119416946        8.3600077548
 Au        11.6262108587        0.0009608588        8.3602894557
 Au        11.6261917143        2.9559608489        8.3601200450
 Au        11.6261725634        5.9119608389        8.3599505768
 Au         1.4782417129        1.4790149519       10.4504010070
 Au         1.4782225685        4.4340149419       10.4502315962
 Au         1.4782034175        7.3900149319       10.4500621281
 Au         4.4342417117        1.4790340961       10.4503438290
 Au         4.4342225672        4.4340340862       10.4501744182
 Au         4.4342034163        7.3900340762       10.4500049501
 Au         7.1922417105        1.4790519581       10.4502904809
 Au         7.1922225660        4.4340519481       10.4501210701
 Au         7.1922034151        7.3900519381       10.4499516020
 Au        10.1482417092        1.4790711024       10.4502333029
 Au        10.1482225648        4.4340710924       10.4500638921
 Au        10.1482034139        7.3900710824       10.4498944240
 Au        13.1042417080        1.4790902467       10.4501761249
 Au        13.1042225636        4.4340902367       10.4500067141
 Au        13.1042034126        7.3900902267       10.4498372460
  N         4.8554463945        5.9125838123       12.0319801331
  N         9.5282436148        5.9145127895       12.0339910302
  N         7.1922435958        5.9351430985       12.0400350116