         0      -5729.810926764      -5726.349025116      -4015.404657411      -5729.404130783      -5729.259818269          4.901766433          4.901766433          9.803532865          5.193960302
         1      -5729.810926764      -5726.349707253      -5662.976359160      -5729.404132375      -5729.259818269          4.901766435          5.293590409         10.005178717          5.193960341
         2      -5729.810926764      -5726.462434700      -5714.121209664      -5729.404425985      -5729.259818270          4.901787463          5.568870086         10.150601616          5.193970735
         3      -5729.810926764      -5727.106150964      -5724.261828477      -5729.406378611      -5729.259818269          4.876667155          6.070444776         10.418245036          5.194643217
         4      -5729.810926764      -5727.815563505      -5727.544023631      -5729.415871712      -5729.259818270          4.906569235          6.590702991         10.682754384          5.199819895
         5      -5729.810926764      -5727.933224763      -5728.357074610      -5729.426756256      -5729.259818270          4.853399896          6.892090677         10.712520823          5.212411842
         6      -5729.810926764      -5728.325859865      -5728.443257338      -5729.427020995      -5729.259818270          4.861211242          6.910669710         10.726985940          5.212861517
         7      -5729.810926764      -5727.804255860      -5728.692081463      -5729.412060773      -5729.259818270          5.407273660          6.498133128         10.738481368          5.225208908
         8      -5729.810926764      -5727.353641932      -5728.746573766      -5729.398232052      -5729.259818269          6.540367030          5.897121949         10.580008633          5.234769012
         9      -5729.810926764      -5727.471446337      -5728.799410407      -5729.384123049      -5729.259818269          7.499953519          5.752647404         10.408910941          5.251487215
        10      -5729.810926764      -5727.875193138      -5728.857617978      -5729.373026035      -5729.259818269          8.307824949          5.660125424         10.228125667          5.275579282
        11      -5729.810926764      -5728.457280552      -5728.927367786      -5729.363533096      -5729.259818270          8.489896892          5.920258971         10.022743425          5.314953311
        12      -5729.810926764      -5728.649782386      -5729.027229043      -5729.346869900      -5729.259818269          8.419908134          6.551747935          9.657210637          5.414600178
        13      -5729.810926764      -5728.699891400      -5729.065254104      -5729.334375212      -5729.259818270          8.231723449          6.594105399          9.482763571          5.466869403
        14      -5729.810926764      -5728.857828437      -5729.022098767      -5729.221058290      -5729.259818269          7.988624617          7.397992037          8.620403468          5.943228405
        15      -5729.810926764      -5728.906769421      -5729.149374419      -5729.211487985      -5729.259818270          7.974225530          7.558853560          8.482054593          5.945660060
        16      -5729.810926764      -5729.058660701      -5728.953807634      -5729.133958319      -5729.259818269          7.703866742          8.257779553          7.966692025          6.283885250
        17      -5729.810926764      -5729.080429857      -5729.161003954      -5729.174748578      -5729.259818270          7.683991310          8.516906787          7.578656738          6.386539134
        18      -5729.810926764      -5729.096554209      -5729.238884481      -5729.199939378      -5729.259818270          7.678891558          8.439541128          7.591339106          6.490168379
        19      -5729.810926764      -5729.112034516      -5729.240672763      -5729.237078633      -5729.259818269          7.708562000          8.301582702          7.620455230          6.690503730
        20      -5729.810926764      -5729.118832817      -5729.268222380      -5729.252280512      -5729.259818270          7.751140733          8.208226878          7.627607317          6.747351321
        21      -5729.810926764      -5729.122772182      -5729.277696585      -5729.270934958      -5729.259818270          7.817781426          8.092979655          7.703727269          6.834515836
        22      -5729.810926764      -5729.124009828      -5729.282857395      -5729.291379436      -5729.259818269          7.893704552          7.984331842          7.805598274          6.862151842
        23      -5729.810926764      -5729.124286892      -5729.288619552      -5729.307363146      -5729.259818270          7.972816608          7.882723000          7.852671459          6.910103378
        24      -5729.810926764      -5729.124508737      -5729.295420007      -5729.318192223      -5729.259818270          8.030725034          7.804592754          7.873032432          6.971994048
        25      -5729.810926764      -5729.118794034      -5729.253898252      -5729.247407289      -5729.259818270          7.627572742          8.378954160          7.760872581          6.619070147
        26      -5729.810926764      -5729.129896890      -5729.258585991      -5729.254847118      -5729.259818269          7.662435460          8.236697160          7.752372378          6.730872725
        27      -5729.810926764      -5729.133528339      -5729.265639876      -5729.260342911      -5729.259818270          7.718332171          8.145306818          7.726954517          6.839050990
        28      -5729.810926764      -5729.136283424      -5729.271451740      -5729.278600446      -5729.259818270          7.794580373          8.015954304          7.884364956          6.924847963
        29      -5729.810926764      -5729.137529349      -5729.271662357      -5729.288391338      -5729.259818270          7.883493847          7.901087723          7.850020296          7.022295180
        30      -5729.810926764      -5729.137072036      -5729.287809451      -5729.300804813      -5729.259818269          7.989812956          7.764076080          7.846140019          7.130838889
        31      -5729.810926764      -5729.132349679      -5729.281723916      -5729.328450818      -5729.259818270          8.171035765          7.546913112          7.962057796          7.287962495
        32      -5729.810926764      -5729.128922753      -5729.301572172      -5729.339713641      -5729.259818269          8.257844534          7.467952420          7.934149216          7.337859046
        33      -5729.810926764      -5729.120821332      -5729.308305203      -5729.357180714      -5729.259818270          8.420977621          7.319306699          8.001864531          7.432789951
        34      -5729.810926764      -5729.117660539      -5729.334194268      -5729.362683988      -5729.259818270          8.480539273          7.272751267          8.009590156          7.462492816
        35      -5729.810926764      -5729.060629716      -5729.391034461      -5729.418137494      -5729.259818270          9.361233887          6.765648767          8.438888742          7.880000764
        36      -5729.810926764      -5729.046203461      -5729.361834553      -5729.433375794      -5729.259818269          9.583194858          6.706333527          8.386965814          7.952883782
        37      -5729.810926764      -5729.038782569      -5729.394597542      -5729.444130027      -5729.259818270          9.786808332          6.710408131          8.440048022          8.024802291
        38      -5729.810926764      -5729.037964904      -5729.392880948      -5729.451649146      -5729.259818269          9.937766248          6.706446772          8.498115927          8.075090019
        39      -5729.810926764      -5729.044598560      -5729.402554071      -5729.469204541      -5729.259818270         10.235293736          6.749630658          8.585805318          8.176634636
        40      -5729.810926764      -5729.067835581      -5729.387182189      -5729.474673256      -5729.259818269         10.425330852          6.833407503          8.612677584          8.241639461
        41      -5729.810926764      -5729.078826167      -5729.409596841      -5729.478596281      -5729.259818270         10.477951106          6.860137105          8.647327924          8.263020213
        42      -5729.810926764      -5729.118972390      -5729.408199269      -5729.484150172      -5729.259818270         10.648185832          6.966958158          8.741321573          8.328353246
        43      -5729.810926764      -5729.185013670      -5729.358345048      -5729.489707769      -5729.259818270         10.857915280          7.185384294          8.828981057          8.418676242
        44      -5729.810926764      -5729.208423619      -5729.406850437      -5729.491351667      -5729.259818269         10.943791030          7.281104811          8.838912061          8.462409249
        45      -5729.810926764      -5729.218554030      -5729.398082609      -5729.494624046      -5729.259818270         11.102180124          7.408987463          8.969706539          8.541061084
        46      -5729.810926764      -5729.220976030      -5729.413718890      -5729.496470121      -5729.259818269         11.169411958          7.437485181          9.004342324          8.583050265
        47      -5729.810926764      -5729.216265282      -5729.381381994      -5729.500273976      -5729.259818270         11.416708755          7.467927511          9.151746608          8.720281245
        48      -5729.810926764      -5729.219613301      -5729.403481315      -5729.500522479      -5729.259818269         11.466194640          7.486945641          9.174960570          8.742403757
        49      -5729.810926764      -5729.220960355      -5729.406662250      -5729.500949421      -5729.259818270         11.533344328          7.507956179          9.206655150          8.773418804
        50      -5729.810926764      -5729.222026974      -5729.401298055      -5729.501845129      -5729.259818269         11.657934044          7.536944728          9.289224079          8.839511820
        51      -5729.810926764      -5729.229760739      -5729.344588453      -5729.502564160      -5729.259818269         11.819605587          7.590773880          9.430719991          8.944165580
        52      -5729.810926764      -5729.236857021      -5729.382252762      -5729.502228866      -5729.259818269         11.860089375          7.641865230          9.441451229          8.986687586
        53      -5729.810926764      -5729.251270629      -5729.370273357      -5729.502182725      -5729.259818270         11.980360582          7.751114813          9.584150179          9.088915356
        54      -5729.810926764      -5729.317409644      -5729.121387117      -5729.499153723      -5729.259818270         12.236104821          8.516849448         10.295586311          9.483347405
        55      -5729.810926764      -5729.326800215      -5729.312696429      -5729.498629503      -5729.259818270         12.189178579          8.605975650         10.217403799          9.484995865
        56      -5729.810926764      -5729.330827777      -5729.313955963      -5729.497459621      -5729.259818269         12.149727304          8.829577645         10.232408673          9.515935097
        57      -5729.810926764      -5729.312723311      -5729.262474449      -5729.485203514      -5729.259818270         12.052867654         10.902103290         10.466786536          9.796389166
        58      -5729.810926764      -5729.362162843      -5729.246236039      -5729.483120567      -5729.259818270         12.159053310         11.239410877         10.527605908          9.854773234
        59      -5729.810926764      -5729.376427724      -5729.275058733      -5729.480612596      -5729.259818270         12.164600593         11.427606299         10.469597697          9.904009365
        60      -5729.810926764      -5729.386471946      -5729.279561474      -5729.479214907      -5729.259818270         12.173006201         11.598736880         10.447968349          9.948892271
        61      -5729.810926764      -5729.403795365      -5729.266236525      -5729.475394002      -5729.259818269         12.250833413         12.151401609         10.422981206         10.113191547
        62      -5729.810926764      -5729.409146302      -5729.280151501      -5729.475186876      -5729.259818269         12.265124772         12.199482780         10.442878589         10.130876816
        63      -5729.810926764      -5729.411570341      -5729.282096201      -5729.474971159      -5729.259818270         12.288589736         12.264464403         10.453931536         10.156529345
        64      -5729.810926764      -5729.423693576      -5729.280176653      -5729.472767947      -5729.259818270         12.497843793         12.814802646         10.563429601         10.391962744
        65      -5729.810926764      -5729.425424405      -5729.298487340      -5729.472865590      -5729.259818270         12.506475741         12.823203843         10.589303594         10.406278068
        66      -5729.810926764      -5729.427399083      -5729.309092119      -5729.473130266      -5729.259818269         12.533665342         12.850721886         10.600077594         10.445946534
        67      -5729.810926764      -5729.428554138      -5729.321764555      -5729.473351407      -5729.259818270         12.546621045         12.862104483         10.626214397         10.465344934
        68      -5729.810926764      -5729.438110128      -5727.797072281      -5729.474953563      -5729.259818269         12.794622005         13.163071033         11.123064036         10.831512282
        69      -5729.810926764      -5729.440301419      -5729.266561149      -5729.475304250      -5729.259818270         12.793105787         13.257974120         11.166977248         10.826668896
        70      -5729.810926764      -5729.442097907      -5729.303601848      -5729.475491424      -5729.259818269         12.789333075         13.228730010         11.110843540         10.835569680
        71      -5729.810926763      -5729.441685403      -5729.340769530      -5729.475243526      -5729.259818269         12.800597397         13.209184084         11.054514650         10.859859041
        72      -5729.810926764      -5729.433883240      -5729.385638994      -5729.475323095      -5729.259818270         12.799524431         13.215382415         11.076781342         10.904020906
        73      -5729.810926764      -5729.439369431      -5729.406593177      -5729.475564589      -5729.259818269         12.824705048         13.224931927         11.101361821         10.917754391
        74      -5729.810926764      -5729.443893689      -5729.411116554      -5729.475956918      -5729.259818270         12.822219833         13.237415320         11.156948284         10.925586140
        75      -5729.810926764      -5729.444341440      -5729.442418934      -5729.476433870      -5729.259818269         12.829491038         13.246544024         11.197771024         10.956667676
        76      -5729.810926764      -5729.444508292      -5729.448256138      -5729.476671074      -5729.259818270         12.832309885         13.232679726         11.219139490         10.965285228
        77      -5729.810926764      -5729.442827170      -5729.442783220      -5729.477857696      -5729.259818270         12.857911139         12.774791311         11.130600665         11.019484174
        78      -5729.810926764      -5729.444373415      -5729.458760728      -5729.478324235      -5729.259818270         12.854052246         12.732503760         11.138142820         11.027248877
        79      -5729.810926764      -5729.441729537      -5729.457453108      -5729.479243592      -5729.259818269         12.876229036         12.543628379         11.103017414         11.040245576
        80      -5729.810926764      -5729.443334461      -5729.464422491      -5729.479540328      -5729.259818270         12.874850958         12.466907586         11.095467544         11.042880199
        81      -5729.810926764      -5729.422685885      -5729.471404954      -5729.483370374      -5729.259818270         12.935760104         11.477821360         10.995983550         11.076359982
        82      -5729.810926764      -5729.428490795      -5729.478683802      -5729.483746653      -5729.259818269         12.949741740         11.449046868         10.989831476         11.073726932
        83      -5729.810926764      -5729.233851974      -5729.431383334      -5729.489219462      -5729.259818270         13.241253467          9.682637124         10.982448522         11.012917878
        84      -5729.810926764      -5729.282665094      -5729.481400108      -5729.489377362      -5729.259818270         13.344171581          9.666458013         10.994507991         11.012504707
        85      -5729.810926764      -5729.312441678      -5729.490886402      -5729.489512999      -5729.259818270         13.364911066          9.626032678         11.005786773         11.011884962
        86      -5729.810926764      -5729.323729526      -5729.493636174      -5729.489755557      -5729.259818270         13.425241948          9.556332217         11.037115122         11.011444442
        87      -5729.810926764      -5729.306262630      -5729.489601660      -5729.490320984      -5729.259818270         13.704312744          9.470034159         11.163240828         11.017178906
        88      -5729.810926764      -5729.358208889      -5729.495831921      -5729.490329289      -5729.259818270         13.719766615          9.465728741         11.199768057         11.023370028
        89      -5729.810926764      -5729.360591412      -5729.495676694      -5729.490205444      -5729.259818270         13.722389575          9.482285998         11.232094931         11.033555614
        90      -5729.810926764      -5729.328715018      -5729.480711688      -5729.489836953      -5729.259818269         13.992544605          9.500774714         11.522215076         11.096273731
        91      -5729.810926764      -5729.360944989      -5729.494666553      -5729.489566194      -5729.259818270         14.031906097          9.500882941         11.576629004         11.114809780
        92      -5729.810926764      -5729.358392000      -5729.494339381      -5729.489150569      -5729.259818269         14.107209118          9.507693692         11.652259571         11.141480949
        93      -5729.810926764      -5729.360866471      -5729.493676407      -5729.488587992      -5729.259818270         14.142909177          9.478653613         11.744301622         11.175091311
        94      -5729.810926764      -5729.320161139      -5729.492072584      -5729.487526366      -5729.259818270         14.287420037          9.464183955         11.902835909         11.233772610
        95      -5729.810926764      -5729.340886896      -5729.490997729      -5729.486744320      -5729.259818269         14.342434633          9.426132873         12.007306288         11.273577852
        96      -5729.810926764      -5729.344210888      -5729.490175672      -5729.486210292      -5729.259818270         14.402485350          9.415582428         12.074420102         11.299630365
        97      -5729.810926764      -5729.224248167      -5729.472332240      -5729.479311157      -5729.259818270         14.988251137          9.265827388         12.874008483         11.599198506
        98      -5729.810926764      -5729.189601736      -5729.466113532      -5729.476270297      -5729.259818269         15.171303298          9.573433316         13.146481928         11.709736795
        99      -5729.810926764      -5729.256886161      -5729.460605668      -5729.472973851      -5729.259818270         15.182275954          9.741615169         13.399114446         11.823085944
       100      -5729.810926764      -5729.168815107      -5729.442150591      -5729.461758446      -5729.259818270         15.341186562         10.392967782         14.144118099         12.163749905
       101      -5729.810926764      -5729.268805430      -5729.441017547      -5729.458644169      -5729.259818269         15.336363981         10.538843860         14.307823033         12.250170554
       102      -5729.810926764      -5729.057388928      -5729.415888186      -5729.427497385      -5729.259818270         15.261866019         11.760510582         15.735494637         12.982958549
       103      -5729.810926764      -5729.006006893      -5729.414910761      -5729.418985483      -5729.259818270         15.471185093         12.283813374         16.038792950         13.159156111
       104      -5729.810926764      -5729.112541840      -5729.413516177      -5729.386853016      -5729.259818269         15.363100043         13.129971972         17.072804437         13.765468001
       105      -5729.810926764      -5729.166239298      -5729.412248651      -5729.363812668      -5729.259818270         15.590842957         13.686580480         17.648044890         14.142036340
       106      -5729.810926764      -5729.205395294      -5729.411478166      -5729.347840405      -5729.259818270         15.555649743         14.003988063         18.010120098         14.387143381
       107      -5729.810926764      -5726.728105066      -5729.394285323      -5729.282682688      -5729.259818270         15.241784143         14.892245535         19.044368531         15.254724800
       108      -5729.810926764      -5729.250155675      -5729.394583716      -5729.281421952      -5729.259818269         15.214103780         15.023792964         19.070763974         15.270198174
       109      -5729.810926764      -5729.287047410      -5729.387639031      -5729.253899829      -5729.259818270         15.261347610         15.160673396         19.086595489         15.592676400
       110      -5729.810926764      -5729.293611744      -5729.388269613      -5729.247492993      -5729.259818270         15.201775533         14.973338444         18.839979986         15.713557747
       111      -5729.810926764      -5729.374950961      -5729.388266404      -5729.242994293      -5729.259818270         15.161558590         14.848668063         18.645201839         15.779818985
       112      -5729.810926764      -5729.359100430      -5729.392415131      -5729.225960124      -5729.259818270         14.990318432         14.143226332         18.056688365         15.974685963
       113      -5729.810926764      -5729.403854573      -5729.418465088      -5729.222549904      -5729.259818270         15.065901991         14.101963669         17.929516204         16.007676914
       114      -5729.810926764      -5729.416209112      -5729.417801215      -5729.216021644      -5729.259818270         15.009553569         13.893986566         17.685768544         16.069171172
       115      -5729.810926764      -5729.422759846      -5729.423967975      -5729.211370739      -5729.259818270         14.998278320         13.807493748         17.519492522         16.111189168
       116      -5729.810926764      -5729.428817278      -5729.433548499      -5729.205617628      -5729.259818270         14.952148610         13.639100413         17.321062096         16.161804117
       117      -5729.810926764      -5729.432493618      -5729.427050932      -5729.199833902      -5729.259818269         14.924450664         13.558484527         17.126479593         16.211336839
       118      -5729.810926764      -5729.434706208      -5729.453213491      -5729.196989479      -5729.259818270         14.903507348         13.487535506         17.034570695         16.235116215
       119      -5729.810926764      -5729.441588896      -5729.229186773      -5729.157915822      -5729.259818270         14.636040052         12.916892471         15.865477359         16.543962695
       120      -5729.810926764      -5729.443605212      -5728.936145707      -5729.158266880      -5729.259818269         14.635602986         13.131212060         15.757603149         16.519405040
       121      -5729.810926764      -5729.444786593      -5729.011611873      -5729.158426429      -5729.259818270         14.585280525         12.917301219         15.231676427         16.514297136
       122      -5729.810926764      -5729.444432141      -5729.273231724      -5729.156007176      -5729.259818270         14.571798761         13.028490769         15.274461439         16.535997652
       123      -5729.810926764      -5729.446597781      -5729.274467088      -5729.154874863      -5729.259818269         14.543587635         13.035463303         15.132241575         16.535269723
       124      -5729.810926764      -5729.446668416      -5729.313786304      -5729.151729804      -5729.259818269         14.519319375         13.012585794         14.992872551         16.549699853
       125      -5729.810926763      -5729.446413423      -5729.314036636      -5729.146646919      -5729.259818270         14.493426935         13.031922224         14.820988093         16.577488170
       126      -5729.810926764      -5729.446451022      -5729.346536711      -5729.141709812      -5729.259818269         14.472214129         13.030340742         14.736869186         16.607601484
       127      -5729.810926764      -5729.440560000      -5728.996862514      -5729.085917697      -5729.259818270         14.342509910         13.205668341         14.128343509         16.948267310
       128      -5729.810926764      -5729.444188509      -5728.786838508      -5729.082740166      -5729.259818270         14.324546712         13.266395152         14.265676148         16.979168787
       129      -5729.810926764      -5729.444692965      -5729.049862218      -5729.079121603      -5729.259818269         14.318013501         13.511386882         14.519443036         17.007770405
       130      -5729.810926764      -5729.446864664      -5729.194416151      -5729.068400361      -5729.259818270         14.301247577         13.639105275         14.687399060         17.080311493
       131      -5729.810926764      -5729.449723639      -5729.324339892      -5729.072816877      -5729.259818270         14.282105115         13.502669947         14.513093548         17.012410081
       132      -5729.810926764      -5729.450398047      -5729.362140633      -5729.071685377      -5729.259818270         14.283072176         13.520098156         14.501475187         17.032819989
       133      -5729.810926764      -5729.451456573      -5729.410454113      -5729.065530342      -5729.259818269         14.275322026         13.464173627         14.442618916         17.064630652
       134      -5729.810926764      -5729.452869403      -5729.427816889      -5729.051465849      -5729.259818270         14.266365250         13.453820052         14.356638038         17.139628973
       135      -5729.810926764      -5729.453473767      -5729.438491902      -5729.044582611      -5729.259818270         14.259736696         13.458534982         14.327703854         17.176277222
       136      -5729.810926764      -5729.454030997      -5729.443623075      -5729.037263343      -5729.259818270         14.255910014         13.465278915         14.301521694         17.215095550
       137      -5729.810926764      -5729.456386178      -5729.435951956      -5729.000217917      -5729.259818269         14.240485329         13.510953965         14.184341525         17.403900915
       138      -5729.810926764      -5729.456842851      -5729.453242306      -5728.994177032      -5729.259818269         14.237123312         13.520087842         14.173205822         17.433010212
       139      -5729.810926764      -5729.457380695      -5729.455328420      -5728.985165818      -5729.259818270         14.234227918         13.527790157         14.158925999         17.476452599
       140      -5729.810926764      -5729.464220515      -5729.408895471      -5728.831278725      -5729.259818270         14.221865295         13.800594862         13.998753047         18.145297013
       141      -5729.810926764      -5729.465328621      -5729.441059440      -5728.819083640      -5729.259818270         14.217101803         13.811932977         14.007316890         18.190277588
       142      -5729.810926764      -5729.466110743      -5729.456588919      -5728.804156396      -5729.259818270         14.217659846         13.810997812         14.018891035         18.246143604
       143      -5729.810926764      -5729.466990614      -5729.457624735      -5728.785390764      -5729.259818270         14.216505332         13.825674384         14.033369495         18.315419137
       144      -5729.810926764      -5729.473769367      -5729.411756502      -5728.546241240      -5729.259818270         14.232749724         14.080357799         14.216803112         19.105216873
       145      -5729.810926764      -5729.475994930      -5729.447602732      -5728.524996505      -5729.259818269         14.225253525         14.069879953         14.229091901         19.167013044
       146      -5729.810926764      -5729.477062104      -5729.458251037      -5728.508185541      -5729.259818270         14.229933464         14.059441982         14.239826789         19.216983568
       147      -5729.810926764      -5729.479323852      -5729.440092606      -5728.364021366      -5729.259818270         14.236077120         14.062765731         14.337271084         19.646092632
       148      -5729.810926764      -5729.481709830      -5729.456973180      -5728.352014964      -5729.259818269         14.243594501         14.106812249         14.344566498         19.688493358
       149      -5729.810926764      -5729.481676955      -5729.448263887      -5728.301810115      -5729.259818269         14.239754537         14.098614004         14.389472323         19.873982913