 # Version information for this restart file 
 # current date 2024-01-11 06:57:39.495
 # current working dir /gpfs/home/cahart/transport/melamine/au_from-h2/ci-neb/ts1/dft_leads-sz_tip-dzvp_surf-dzvp_kpoints-2-4-20_replicas-5
 # Program compiled at                              Thu 21 Sep 19:20:17 BST 2023
 # Program compiled on                                           hx1-c12-login-1
 # Program compiled for                                                    local
 # Source code revision number                                       git:5518aa6
 &GLOBAL
   EXTENDED_FFT_LENGTHS  T
   PRINT_LEVEL  MEDIUM
   PROJECT_NAME 2_dft_wfn-r-0
   OUTPUT_FILE_NAME 2_dft_wfn-r-0.out
   RUN_TYPE  BAND
 &END GLOBAL
 &MOTION
   &CONSTRAINT
     &FIXED_ATOMS
       LIST  1..93 104..183
     &END FIXED_ATOMS
   &END CONSTRAINT
   &BAND
     NPROC_REP  64
     BAND_TYPE  CI-NEB
     NUMBER_OF_REPLICA  5
     K_SPRING     5.0000000000000003E-02
     &CI_NEB
       NSTEPS_IT  5
     &END CI_NEB
     &OPTIMIZE_BAND
       OPT_TYPE  DIIS
       &DIIS
         MAX_STEPS  1000
       &END DIIS
     &END OPTIMIZE_BAND
     &REPLICA
       &COORD
             0.0000000000000000E+00    0.0000000000000000E+00    0.0000000000000000E+00
             0.0000000000000000E+00    2.9550000000000041E+00    0.0000000000000000E+00
             0.0000000000000000E+00    5.9110000000000094E+00    0.0000000000000000E+00
             2.9560000000000004E+00    0.0000000000000000E+00    0.0000000000000000E+00
             2.9560000000000004E+00    2.9550000000000041E+00    0.0000000000000000E+00
             2.9560000000000004E+00    5.9110000000000094E+00    0.0000000000000000E+00
             5.9120000000000008E+00    0.0000000000000000E+00    0.0000000000000000E+00
             5.9120000000000008E+00    2.9550000000000041E+00    0.0000000000000000E+00
             5.9120000000000008E+00    5.9110000000000094E+00    0.0000000000000000E+00
             8.6700000000000070E+00    0.0000000000000000E+00    0.0000000000000000E+00
             8.6700000000000070E+00    2.9550000000000041E+00    0.0000000000000000E+00
             8.6700000000000070E+00    5.9110000000000094E+00    0.0000000000000000E+00
             1.1626000000000010E+01    0.0000000000000000E+00    0.0000000000000000E+00
             1.1626000000000010E+01    2.9550000000000041E+00    0.0000000000000000E+00
             1.1626000000000010E+01    5.9110000000000094E+00    0.0000000000000000E+00
             1.4780000000000002E+00    1.4780000000000002E+00    2.0900000000000030E+00
             1.4780000000000002E+00    4.4330000000000052E+00    2.0900000000000030E+00
             1.4780000000000002E+00    7.3890000000000136E+00    2.0900000000000030E+00
             4.4340000000000011E+00    1.4780000000000002E+00    2.0900000000000030E+00
             4.4340000000000011E+00    4.4330000000000052E+00    2.0900000000000030E+00
             4.4340000000000011E+00    7.3890000000000136E+00    2.0900000000000030E+00
             7.1920000000000019E+00    1.4780000000000002E+00    2.0900000000000030E+00
             7.1920000000000019E+00    4.4330000000000052E+00    2.0900000000000030E+00
             7.1920000000000019E+00    7.3890000000000136E+00    2.0900000000000030E+00
             1.0148000000000017E+01    1.4780000000000002E+00    2.0900000000000030E+00
             1.0148000000000017E+01    4.4330000000000052E+00    2.0900000000000030E+00
             1.0148000000000017E+01    7.3890000000000136E+00    2.0900000000000030E+00
             1.3104000000000017E+01    1.4780000000000002E+00    2.0900000000000030E+00
             1.3104000000000017E+01    4.4330000000000052E+00    2.0900000000000030E+00
             1.3104000000000017E+01    7.3890000000000136E+00    2.0900000000000030E+00
             0.0000000000000000E+00    0.0000000000000000E+00    4.1800000000000059E+00
             0.0000000000000000E+00    2.9550000000000041E+00    4.1800000000000059E+00
             0.0000000000000000E+00    5.9110000000000094E+00    4.1800000000000059E+00
             2.9560000000000004E+00    0.0000000000000000E+00    4.1800000000000059E+00
             2.9560000000000004E+00    2.9550000000000041E+00    4.1800000000000059E+00
             2.9560000000000004E+00    5.9110000000000094E+00    4.1800000000000059E+00
             5.9120000000000008E+00    0.0000000000000000E+00    4.1800000000000059E+00
             5.9120000000000008E+00    2.9550000000000041E+00    4.1800000000000059E+00
             5.9120000000000008E+00    5.9110000000000094E+00    4.1800000000000059E+00
             8.6700000000000070E+00    0.0000000000000000E+00    4.1800000000000059E+00
             8.6700000000000070E+00    2.9550000000000041E+00    4.1800000000000059E+00
             8.6700000000000070E+00    5.9110000000000094E+00    4.1800000000000059E+00
             1.1626000000000010E+01    0.0000000000000000E+00    4.1800000000000059E+00
             1.1626000000000010E+01    2.9550000000000041E+00    4.1800000000000059E+00
             1.1626000000000010E+01    5.9110000000000094E+00    4.1800000000000059E+00
             1.4780000000000002E+00    1.4780000000000002E+00    6.2700000000000067E+00
             1.4780000000000002E+00    4.4330000000000052E+00    6.2700000000000067E+00
             1.4780000000000002E+00    7.3890000000000136E+00    6.2700000000000067E+00
             4.4340000000000011E+00    1.4780000000000002E+00    6.2700000000000067E+00
             4.4340000000000011E+00    4.4330000000000052E+00    6.2700000000000067E+00
             4.4340000000000011E+00    7.3890000000000136E+00    6.2700000000000067E+00
             7.1920000000000019E+00    1.4780000000000002E+00    6.2700000000000067E+00
             7.1920000000000019E+00    4.4330000000000052E+00    6.2700000000000067E+00
             7.1920000000000019E+00    7.3890000000000136E+00    6.2700000000000067E+00
             1.0148000000000017E+01    1.4780000000000002E+00    6.2700000000000067E+00
             1.0148000000000017E+01    4.4330000000000052E+00    6.2700000000000067E+00
             1.0148000000000017E+01    7.3890000000000136E+00    6.2700000000000067E+00
             1.3104000000000017E+01    1.4780000000000002E+00    6.2700000000000067E+00
             1.3104000000000017E+01    4.4330000000000052E+00    6.2700000000000067E+00
             1.3104000000000017E+01    7.3890000000000136E+00    6.2700000000000067E+00
             0.0000000000000000E+00    0.0000000000000000E+00    8.3600000000000119E+00
             0.0000000000000000E+00    2.9550000000000041E+00    8.3600000000000119E+00
             0.0000000000000000E+00    5.9110000000000094E+00    8.3600000000000119E+00
             2.9560000000000004E+00    0.0000000000000000E+00    8.3600000000000119E+00
             2.9560000000000004E+00    2.9550000000000041E+00    8.3600000000000119E+00
             2.9560000000000004E+00    5.9110000000000094E+00    8.3600000000000119E+00
             5.9120000000000008E+00    0.0000000000000000E+00    8.3600000000000119E+00
             5.9120000000000008E+00    2.9550000000000041E+00    8.3600000000000119E+00
             5.9120000000000008E+00    5.9110000000000094E+00    8.3600000000000119E+00
             8.6700000000000070E+00    0.0000000000000000E+00    8.3600000000000119E+00
             8.6700000000000070E+00    2.9550000000000041E+00    8.3600000000000119E+00
             8.6700000000000070E+00    5.9110000000000094E+00    8.3600000000000119E+00
             1.1626000000000010E+01    0.0000000000000000E+00    8.3600000000000119E+00
             1.1626000000000010E+01    2.9550000000000041E+00    8.3600000000000119E+00
             1.1626000000000010E+01    5.9110000000000094E+00    8.3600000000000119E+00
             1.4780000000000002E+00    1.4780000000000002E+00    1.0450000000000005E+01
             1.4780000000000002E+00    4.4330000000000052E+00    1.0450000000000005E+01
             1.4780000000000002E+00    7.3890000000000136E+00    1.0450000000000005E+01
             4.4340000000000011E+00    1.4780000000000002E+00    1.0450000000000005E+01
             4.4340000000000011E+00    4.4330000000000052E+00    1.0450000000000005E+01
             4.4340000000000011E+00    7.3890000000000136E+00    1.0450000000000005E+01
             7.1920000000000019E+00    1.4780000000000002E+00    1.0450000000000005E+01
             7.1920000000000019E+00    4.4330000000000052E+00    1.0450000000000005E+01
             7.1920000000000019E+00    7.3890000000000136E+00    1.0450000000000005E+01
             1.0148000000000017E+01    1.4780000000000002E+00    1.0450000000000005E+01
             1.0148000000000017E+01    4.4330000000000052E+00    1.0450000000000005E+01
             1.0148000000000017E+01    7.3890000000000136E+00    1.0450000000000005E+01
             1.3104000000000017E+01    1.4780000000000002E+00    1.0450000000000005E+01
             1.3104000000000017E+01    4.4330000000000052E+00    1.0450000000000005E+01
             1.3104000000000017E+01    7.3890000000000136E+00    1.0450000000000005E+01
             4.8554000000000057E+00    5.9119000000000055E+00    1.2031800000000016E+01
             9.5280000000000165E+00    5.9137000000000128E+00    1.2034000000000022E+01
             7.1920000000000019E+00    5.9340000000000144E+00    1.2040000000000006E+01
             4.0750319168000040E+00    5.9049488170000073E+00    1.2696844061800014E+01
             1.0293988349500006E+01    5.9062142779000055E+00    1.2716532694500012E+01
             6.0099999686000087E+00    5.9120523853000124E+00    1.2765819797400026E+01
             8.3750478948000069E+00    5.9129627335000032E+00    1.2760746495900015E+01
             5.9788500869000130E+00    5.8882515165000058E+00    1.4094239568500019E+01
             8.4047327065000061E+00    5.8893877816000089E+00    1.4094060897200011E+01
             7.1943473363000132E+00    5.8799164377000110E+00    1.4701118490300020E+01
             7.1912293097000086E+00    5.8521058221000066E+00    1.6050622658200012E+01
             6.3086348447000082E+00    5.8615539361000071E+00    1.6548439365000018E+01
             8.0709262665000097E+00    5.8621389354000115E+00    1.6553588809700024E+01
             7.3120000000000029E+00    5.9340000000000144E+00    2.1043000000000006E+01
             5.8130000000000051E+00    7.4340000000000170E+00    2.2992000000000029E+01
             8.8130000000000113E+00    4.4340000000000011E+00    2.2992000000000029E+01
             5.8130000000000051E+00    4.4330000000000052E+00    2.2992000000000029E+01
             8.8130000000000113E+00    7.4340000000000170E+00    2.2992000000000029E+01
             1.4780000000000002E+00    1.4780000000000002E+00    2.5082000000000029E+01
             1.4780000000000002E+00    4.4330000000000052E+00    2.5082000000000029E+01
             1.4780000000000002E+00    7.3890000000000136E+00    2.5082000000000029E+01
             4.4340000000000011E+00    1.4780000000000002E+00    2.5082000000000029E+01
             4.4340000000000011E+00    4.4330000000000052E+00    2.5082000000000029E+01
             4.4340000000000011E+00    7.3890000000000136E+00    2.5082000000000029E+01
             7.1920000000000019E+00    1.4780000000000002E+00    2.5082000000000029E+01
             7.1920000000000019E+00    4.4330000000000052E+00    2.5082000000000029E+01
             7.1920000000000019E+00    7.3890000000000136E+00    2.5082000000000029E+01
             1.0148000000000017E+01    1.4780000000000002E+00    2.5082000000000029E+01
             1.0148000000000017E+01    4.4330000000000052E+00    2.5082000000000029E+01
             1.0148000000000017E+01    7.3890000000000136E+00    2.5082000000000029E+01
             1.3104000000000017E+01    1.4780000000000002E+00    2.5082000000000029E+01
             1.3104000000000017E+01    4.4330000000000052E+00    2.5082000000000029E+01
             1.3104000000000017E+01    7.3890000000000136E+00    2.5082000000000029E+01
             0.0000000000000000E+00    0.0000000000000000E+00    2.7172000000000043E+01
             0.0000000000000000E+00    2.9550000000000041E+00    2.7172000000000043E+01
             0.0000000000000000E+00    5.9110000000000094E+00    2.7172000000000043E+01
             2.9560000000000004E+00    0.0000000000000000E+00    2.7172000000000043E+01
             2.9560000000000004E+00    2.9550000000000041E+00    2.7172000000000043E+01
             2.9560000000000004E+00    5.9110000000000094E+00    2.7172000000000043E+01
             5.9120000000000008E+00    0.0000000000000000E+00    2.7172000000000043E+01
             5.9120000000000008E+00    2.9550000000000041E+00    2.7172000000000043E+01
             5.9120000000000008E+00    5.9110000000000094E+00    2.7172000000000043E+01
             8.6700000000000070E+00    0.0000000000000000E+00    2.7172000000000043E+01
             8.6700000000000070E+00    2.9550000000000041E+00    2.7172000000000043E+01
             8.6700000000000070E+00    5.9110000000000094E+00    2.7172000000000043E+01
             1.1626000000000010E+01    0.0000000000000000E+00    2.7172000000000043E+01
             1.1626000000000010E+01    2.9550000000000041E+00    2.7172000000000043E+01
             1.1626000000000010E+01    5.9110000000000094E+00    2.7172000000000043E+01
             1.4780000000000002E+00    1.4780000000000002E+00    2.9262000000000057E+01
             1.4780000000000002E+00    4.4330000000000052E+00    2.9262000000000057E+01
             1.4780000000000002E+00    7.3890000000000136E+00    2.9262000000000057E+01
             4.4340000000000011E+00    1.4780000000000002E+00    2.9262000000000057E+01
             4.4340000000000011E+00    4.4330000000000052E+00    2.9262000000000057E+01
             4.4340000000000011E+00    7.3890000000000136E+00    2.9262000000000057E+01
             7.1920000000000019E+00    1.4780000000000002E+00    2.9262000000000057E+01
             7.1920000000000019E+00    4.4330000000000052E+00    2.9262000000000057E+01
             7.1920000000000019E+00    7.3890000000000136E+00    2.9262000000000057E+01
             1.0148000000000017E+01    1.4780000000000002E+00    2.9262000000000057E+01
             1.0148000000000017E+01    4.4330000000000052E+00    2.9262000000000057E+01
             1.0148000000000017E+01    7.3890000000000136E+00    2.9262000000000057E+01
             1.3104000000000017E+01    1.4780000000000002E+00    2.9262000000000057E+01
             1.3104000000000017E+01    4.4330000000000052E+00    2.9262000000000057E+01
             1.3104000000000017E+01    7.3890000000000136E+00    2.9262000000000057E+01
             0.0000000000000000E+00    0.0000000000000000E+00    3.1352000000000022E+01
             0.0000000000000000E+00    2.9550000000000041E+00    3.1352000000000022E+01
             0.0000000000000000E+00    5.9110000000000094E+00    3.1352000000000022E+01
             2.9560000000000004E+00    0.0000000000000000E+00    3.1352000000000022E+01
             2.9560000000000004E+00    2.9550000000000041E+00    3.1352000000000022E+01
             2.9560000000000004E+00    5.9110000000000094E+00    3.1352000000000022E+01
             5.9120000000000008E+00    0.0000000000000000E+00    3.1352000000000022E+01
             5.9120000000000008E+00    2.9550000000000041E+00    3.1352000000000022E+01
             5.9120000000000008E+00    5.9110000000000094E+00    3.1352000000000022E+01
             8.6700000000000070E+00    0.0000000000000000E+00    3.1352000000000022E+01
             8.6700000000000070E+00    2.9550000000000041E+00    3.1352000000000022E+01
             8.6700000000000070E+00    5.9110000000000094E+00    3.1352000000000022E+01
             1.1626000000000010E+01    0.0000000000000000E+00    3.1352000000000022E+01
             1.1626000000000010E+01    2.9550000000000041E+00    3.1352000000000022E+01
             1.1626000000000010E+01    5.9110000000000094E+00    3.1352000000000022E+01
             1.4780000000000002E+00    1.4780000000000002E+00    3.3442000000000050E+01
             1.4780000000000002E+00    4.4330000000000052E+00    3.3442000000000050E+01
             1.4780000000000002E+00    7.3890000000000136E+00    3.3442000000000050E+01
             4.4340000000000011E+00    1.4780000000000002E+00    3.3442000000000050E+01
             4.4340000000000011E+00    4.4330000000000052E+00    3.3442000000000050E+01
             4.4340000000000011E+00    7.3890000000000136E+00    3.3442000000000050E+01
             7.1920000000000019E+00    1.4780000000000002E+00    3.3442000000000050E+01
             7.1920000000000019E+00    4.4330000000000052E+00    3.3442000000000050E+01
             7.1920000000000019E+00    7.3890000000000136E+00    3.3442000000000050E+01
             1.0148000000000017E+01    1.4780000000000002E+00    3.3442000000000050E+01
             1.0148000000000017E+01    4.4330000000000052E+00    3.3442000000000050E+01
             1.0148000000000017E+01    7.3890000000000136E+00    3.3442000000000050E+01
             1.3104000000000017E+01    1.4780000000000002E+00    3.3442000000000050E+01
             1.3104000000000017E+01    4.4330000000000052E+00    3.3442000000000050E+01
             1.3104000000000017E+01    7.3890000000000136E+00    3.3442000000000050E+01
       &END COORD
       &VELOCITY
             0.0000000000000000E+00    0.0000000000000000E+00    0.0000000000000000E+00
             0.0000000000000000E+00    0.0000000000000000E+00    0.0000000000000000E+00
             0.0000000000000000E+00    0.0000000000000000E+00    0.0000000000000000E+00
             0.0000000000000000E+00    0.0000000000000000E+00    0.0000000000000000E+00
             0.0000000000000000E+00    0.0000000000000000E+00    0.0000000000000000E+00
             0.0000000000000000E+00    0.0000000000000000E+00    0.0000000000000000E+00
             0.0000000000000000E+00    0.0000000000000000E+00    0.0000000000000000E+00
             0.0000000000000000E+00    0.0000000000000000E+00    0.0000000000000000E+00
             0.0000000000000000E+00    0.0000000000000000E+00    0.0000000000000000E+00
             0.0000000000000000E+00    0.0000000000000000E+00    0.0000000000000000E+00
             0.0000000000000000E+00    0.0000000000000000E+00    0.0000000000000000E+00
             0.0000000000000000E+00    0.0000000000000000E+00    0.0000000000000000E+00
             0.0000000000000000E+00    0.0000000000000000E+00    0.0000000000000000E+00
             0.0000000000000000E+00    0.0000000000000000E+00    0.0000000000000000E+00
             0.0000000000000000E+00    0.0000000000000000E+00    0.0000000000000000E+00
             0.0000000000000000E+00    0.0000000000000000E+00    0.0000000000000000E+00
             0.0000000000000000E+00    0.0000000000000000E+00    0.0000000000000000E+00
             0.0000000000000000E+00    0.0000000000000000E+00    0.0000000000000000E+00
             0.0000000000000000E+00    0.0000000000000000E+00    0.0000000000000000E+00
             0.0000000000000000E+00    0.0000000000000000E+00    0.0000000000000000E+00
             0.0000000000000000E+00    0.0000000000000000E+00    0.0000000000000000E+00
             0.0000000000000000E+00    0.0000000000000000E+00    0.0000000000000000E+00
             0.0000000000000000E+00    0.0000000000000000E+00    0.0000000000000000E+00
             0.0000000000000000E+00    0.0000000000000000E+00    0.0000000000000000E+00
             0.0000000000000000E+00    0.0000000000000000E+00    0.0000000000000000E+00
             0.0000000000000000E+00    0.0000000000000000E+00    0.0000000000000000E+00
             0.0000000000000000E+00    0.0000000000000000E+00    0.0000000000000000E+00
             0.0000000000000000E+00    0.0000000000000000E+00    0.0000000000000000E+00
             0.0000000000000000E+00    0.0000000000000000E+00    0.0000000000000000E+00
             0.0000000000000000E+00    0.0000000000000000E+00    0.0000000000000000E+00
             0.0000000000000000E+00    0.0000000000000000E+00    0.0000000000000000E+00
             0.0000000000000000E+00    0.0000000000000000E+00    0.0000000000000000E+00
             0.0000000000000000E+00    0.0000000000000000E+00    0.0000000000000000E+00
             0.0000000000000000E+00    0.0000000000000000E+00    0.0000000000000000E+00
             0.0000000000000000E+00    0.0000000000000000E+00    0.0000000000000000E+00
             0.0000000000000000E+00    0.0000000000000000E+00    0.0000000000000000E+00
             0.0000000000000000E+00    0.0000000000000000E+00    0.0000000000000000E+00
             0.0000000000000000E+00    0.0000000000000000E+00    0.0000000000000000E+00
             0.0000000000000000E+00    0.0000000000000000E+00    0.0000000000000000E+00
             0.0000000000000000E+00    0.0000000000000000E+00    0.0000000000000000E+00
             0.0000000000000000E+00    0.0000000000000000E+00    0.0000000000000000E+00
             0.0000000000000000E+00    0.0000000000000000E+00    0.0000000000000000E+00
             0.0000000000000000E+00    0.0000000000000000E+00    0.0000000000000000E+00
             0.0000000000000000E+00    0.0000000000000000E+00    0.0000000000000000E+00
             0.0000000000000000E+00    0.0000000000000000E+00    0.0000000000000000E+00
             0.0000000000000000E+00    0.0000000000000000E+00    0.0000000000000000E+00
             0.0000000000000000E+00    0.0000000000000000E+00    0.0000000000000000E+00
             0.0000000000000000E+00    0.0000000000000000E+00    0.0000000000000000E+00
             0.0000000000000000E+00    0.0000000000000000E+00    0.0000000000000000E+00
             0.0000000000000000E+00    0.0000000000000000E+00    0.0000000000000000E+00
             0.0000000000000000E+00    0.0000000000000000E+00    0.0000000000000000E+00
             0.0000000000000000E+00    0.0000000000000000E+00    0.0000000000000000E+00
             0.0000000000000000E+00    0.0000000000000000E+00    0.0000000000000000E+00
             0.0000000000000000E+00    0.0000000000000000E+00    0.0000000000000000E+00
             0.0000000000000000E+00    0.0000000000000000E+00    0.0000000000000000E+00
             0.0000000000000000E+00    0.0000000000000000E+00    0.0000000000000000E+00
             0.0000000000000000E+00    0.0000000000000000E+00    0.0000000000000000E+00
             0.0000000000000000E+00    0.0000000000000000E+00    0.0000000000000000E+00
             0.0000000000000000E+00    0.0000000000000000E+00    0.0000000000000000E+00
             0.0000000000000000E+00    0.0000000000000000E+00    0.0000000000000000E+00
             0.0000000000000000E+00    0.0000000000000000E+00    0.0000000000000000E+00
             0.0000000000000000E+00    0.0000000000000000E+00    0.0000000000000000E+00
             0.0000000000000000E+00    0.0000000000000000E+00    0.0000000000000000E+00
             0.0000000000000000E+00    0.0000000000000000E+00    0.0000000000000000E+00
             0.0000000000000000E+00    0.0000000000000000E+00    0.0000000000000000E+00
             0.0000000000000000E+00    0.0000000000000000E+00    0.0000000000000000E+00
             0.0000000000000000E+00    0.0000000000000000E+00    0.0000000000000000E+00
             0.0000000000000000E+00    0.0000000000000000E+00    0.0000000000000000E+00
             0.0000000000000000E+00    0.0000000000000000E+00    0.0000000000000000E+00
             0.0000000000000000E+00    0.0000000000000000E+00    0.0000000000000000E+00
             0.0000000000000000E+00    0.0000000000000000E+00    0.0000000000000000E+00
             0.0000000000000000E+00    0.0000000000000000E+00    0.0000000000000000E+00
             0.0000000000000000E+00    0.0000000000000000E+00    0.0000000000000000E+00
             0.0000000000000000E+00    0.0000000000000000E+00    0.0000000000000000E+00
             0.0000000000000000E+00    0.0000000000000000E+00    0.0000000000000000E+00
             0.0000000000000000E+00    0.0000000000000000E+00    0.0000000000000000E+00
             0.0000000000000000E+00    0.0000000000000000E+00    0.0000000000000000E+00
             0.0000000000000000E+00    0.0000000000000000E+00    0.0000000000000000E+00
             0.0000000000000000E+00    0.0000000000000000E+00    0.0000000000000000E+00
             0.0000000000000000E+00    0.0000000000000000E+00    0.0000000000000000E+00
             0.0000000000000000E+00    0.0000000000000000E+00    0.0000000000000000E+00
             0.0000000000000000E+00    0.0000000000000000E+00    0.0000000000000000E+00
             0.0000000000000000E+00    0.0000000000000000E+00    0.0000000000000000E+00
             0.0000000000000000E+00    0.0000000000000000E+00    0.0000000000000000E+00
             0.0000000000000000E+00    0.0000000000000000E+00    0.0000000000000000E+00
             0.0000000000000000E+00    0.0000000000000000E+00    0.0000000000000000E+00
             0.0000000000000000E+00    0.0000000000000000E+00    0.0000000000000000E+00
             0.0000000000000000E+00    0.0000000000000000E+00    0.0000000000000000E+00
             0.0000000000000000E+00    0.0000000000000000E+00    0.0000000000000000E+00
             0.0000000000000000E+00    0.0000000000000000E+00    0.0000000000000000E+00
             0.0000000000000000E+00    0.0000000000000000E+00    0.0000000000000000E+00
             0.0000000000000000E+00    0.0000000000000000E+00    0.0000000000000000E+00
             0.0000000000000000E+00    0.0000000000000000E+00    0.0000000000000000E+00
             0.0000000000000000E+00    0.0000000000000000E+00    0.0000000000000000E+00
             0.0000000000000000E+00    0.0000000000000000E+00    0.0000000000000000E+00
             0.0000000000000000E+00    0.0000000000000000E+00    0.0000000000000000E+00
             0.0000000000000000E+00    0.0000000000000000E+00    0.0000000000000000E+00
             0.0000000000000000E+00    0.0000000000000000E+00    0.0000000000000000E+00
             0.0000000000000000E+00    0.0000000000000000E+00    0.0000000000000000E+00
             0.0000000000000000E+00    0.0000000000000000E+00    0.0000000000000000E+00
             0.0000000000000000E+00    0.0000000000000000E+00    0.0000000000000000E+00
             0.0000000000000000E+00    0.0000000000000000E+00    0.0000000000000000E+00
             0.0000000000000000E+00    0.0000000000000000E+00    0.0000000000000000E+00
             0.0000000000000000E+00    0.0000000000000000E+00    0.0000000000000000E+00
             0.0000000000000000E+00    0.0000000000000000E+00    0.0000000000000000E+00
             0.0000000000000000E+00    0.0000000000000000E+00    0.0000000000000000E+00
             0.0000000000000000E+00    0.0000000000000000E+00    0.0000000000000000E+00
             0.0000000000000000E+00    0.0000000000000000E+00    0.0000000000000000E+00
             0.0000000000000000E+00    0.0000000000000000E+00    0.0000000000000000E+00
             0.0000000000000000E+00    0.0000000000000000E+00    0.0000000000000000E+00
             0.0000000000000000E+00    0.0000000000000000E+00    0.0000000000000000E+00
             0.0000000000000000E+00    0.0000000000000000E+00    0.0000000000000000E+00
             0.0000000000000000E+00    0.0000000000000000E+00    0.0000000000000000E+00
             0.0000000000000000E+00    0.0000000000000000E+00    0.0000000000000000E+00
             0.0000000000000000E+00    0.0000000000000000E+00    0.0000000000000000E+00
             0.0000000000000000E+00    0.0000000000000000E+00    0.0000000000000000E+00
             0.0000000000000000E+00    0.0000000000000000E+00    0.0000000000000000E+00
             0.0000000000000000E+00    0.0000000000000000E+00    0.0000000000000000E+00
             0.0000000000000000E+00    0.0000000000000000E+00    0.0000000000000000E+00
             0.0000000000000000E+00    0.0000000000000000E+00    0.0000000000000000E+00
             0.0000000000000000E+00    0.0000000000000000E+00    0.0000000000000000E+00
             0.0000000000000000E+00    0.0000000000000000E+00    0.0000000000000000E+00
             0.0000000000000000E+00    0.0000000000000000E+00    0.0000000000000000E+00
             0.0000000000000000E+00    0.0000000000000000E+00    0.0000000000000000E+00
             0.0000000000000000E+00    0.0000000000000000E+00    0.0000000000000000E+00
             0.0000000000000000E+00    0.0000000000000000E+00    0.0000000000000000E+00
             0.0000000000000000E+00    0.0000000000000000E+00    0.0000000000000000E+00
             0.0000000000000000E+00    0.0000000000000000E+00    0.0000000000000000E+00
             0.0000000000000000E+00    0.0000000000000000E+00    0.0000000000000000E+00
             0.0000000000000000E+00    0.0000000000000000E+00    0.0000000000000000E+00
             0.0000000000000000E+00    0.0000000000000000E+00    0.0000000000000000E+00
             0.0000000000000000E+00    0.0000000000000000E+00    0.0000000000000000E+00
             0.0000000000000000E+00    0.0000000000000000E+00    0.0000000000000000E+00
             0.0000000000000000E+00    0.0000000000000000E+00    0.0000000000000000E+00
             0.0000000000000000E+00    0.0000000000000000E+00    0.0000000000000000E+00
             0.0000000000000000E+00    0.0000000000000000E+00    0.0000000000000000E+00
             0.0000000000000000E+00    0.0000000000000000E+00    0.0000000000000000E+00
             0.0000000000000000E+00    0.0000000000000000E+00    0.0000000000000000E+00
             0.0000000000000000E+00    0.0000000000000000E+00    0.0000000000000000E+00
             0.0000000000000000E+00    0.0000000000000000E+00    0.0000000000000000E+00
             0.0000000000000000E+00    0.0000000000000000E+00    0.0000000000000000E+00
             0.0000000000000000E+00    0.0000000000000000E+00    0.0000000000000000E+00
             0.0000000000000000E+00    0.0000000000000000E+00    0.0000000000000000E+00
             0.0000000000000000E+00    0.0000000000000000E+00    0.0000000000000000E+00