ATOMS
H             3.25353201      5.72009504     18.92650888            -0.70599786     -0.03919860      0.00552137
H             3.25943371      5.72541282     19.67655762             0.70599786      0.03919860     -0.00552137
