ATOMS
H             3.25353201      5.72009504     18.92650888             0.70710242     -0.00012950      0.00247958
H             3.25943371      5.72541282     19.67655762             0.70710242     -0.00012950      0.00247958
