#     Step Nr.          Time[fs]        Kin.[a.u.]          Temp[K]            Pot.[a.u.]        Cons Qty[a.u.]        UsedTime[s]
      2001         1000.500000         0.718649321       297.224932795     -9597.472769842     -9596.712438020      6231.777962976
      2002         1001.000000         0.718404759       297.123784978     -9597.474007622     -9596.712624462      2215.892497670
      2003         1001.500000         0.721482127       298.396548358     -9597.476854753     -9596.712865281      2357.363501427
      2004         1002.000000         0.723518636       299.238824434     -9597.478888540     -9596.713013009      2311.247253371
      2005         1002.500000         0.723829425       299.367363268     -9597.478833781     -9596.713006441      2244.909525223
      2006         1003.000000         0.721633223       298.459039897     -9597.477447631     -9596.712929308      2315.934472361
      2007         1003.500000         0.718909177       297.332406343     -9597.476520929     -9596.712916408      2057.152476582
      2008         1004.000000         0.718654785       297.227192961     -9597.476940306     -9596.713025372      2776.256866736
      2009         1004.500000         0.718994328       297.367623690     -9597.477591782     -9596.713226227      2219.661607105
      2010         1005.000000         0.717050389       296.563633216     -9597.476011968     -9596.713370497      2096.926896929
      2011         1005.500000         0.710846595       293.997816770     -9597.470522114     -9596.713370550      2965.725845850
      2012         1006.000000         0.703830359       291.095983947     -9597.461689069     -9596.713203366      2846.728151772
      2013         1006.500000         0.695349421       287.588367668     -9597.452311012     -9596.712983553      2093.140451107
      2014         1007.000000         0.688778628       284.870764441     -9597.445853812     -9596.712854803      2102.392527954
      2015         1007.500000         0.687490431       284.337981259     -9597.444583247     -9596.712856709      2211.537518410
      2016         1008.000000         0.691809849       286.124442228     -9597.448764163     -9596.712971709      2095.974654040
      2017         1008.500000         0.699469866       289.292535337     -9597.457007908     -9596.713127465      3010.184088215
      2018         1009.000000         0.707787834       292.732749132     -9597.467185155     -9596.713324636      2097.518694590
      2019         1009.500000         0.717651039       296.812055228     -9597.476750131     -9596.713540737      2225.989573476
      2020         1010.000000         0.722367945       298.762912241     -9597.483079656     -9596.713709155      2478.200071019
      2021         1010.500000         0.721380151       298.354372325     -9597.484470427     -9596.713739492      2203.054476900
      2022         1011.000000         0.716801173       296.460560440     -9597.481338635     -9596.713617490      2265.329501172
      2023         1011.500000         0.712927139       294.858305643     -9597.476379900     -9596.713403374      2325.052609372
      2024         1012.000000         0.709697158       293.522423390     -9597.473439009     -9596.713218010      2472.904407282
      2025         1012.500000         0.711700578       294.351014354     -9597.475670166     -9596.713174036      2459.379402343
      2026         1013.000000         0.718043119       296.974214732     -9597.483959959     -9596.713267777      2792.205020044
      2027         1013.500000         0.730235264       302.016743308     -9597.496654812     -9596.713460880      2453.345972617
      2028         1014.000000         0.743884802       307.662032015     -9597.510236616     -9596.713675433      2327.571603443
      2029         1014.500000         0.756041436       312.689873239     -9597.520540428     -9596.713838598      3150.797661435
      2030         1015.000000         0.758601083       313.748513080     -9597.524108865     -9596.713885202      2276.735137666
      2031         1015.500000         0.752949126       311.410930321     -9597.519279244     -9596.713774365      3022.245315425
      2032         1016.000000         0.741781133       306.791979079     -9597.506724901     -9596.713522627      2109.788895659
      2033         1016.500000         0.725423961       300.026844699     -9597.489334828     -9596.713145428      2096.369030978
      2034         1017.000000         0.707568903       292.642201930     -9597.471944823     -9596.712731584      2956.599081722
      2035         1017.500000         0.697417365       288.443644867     -9597.459998581     -9596.712423956      2953.004065928
      2036         1018.000000         0.695625522       287.702559659     -9597.457504998     -9596.712353466      2151.460909344
      2037         1018.500000         0.703105011       290.795988619     -9597.464966324     -9596.712585437      2950.235961076
      2038         1019.000000         0.717868402       296.901954159     -9597.478559749     -9596.713035800      2142.611746725
      2039         1019.500000         0.730583027       302.160573961     -9597.491735929     -9596.713456763      2091.092304175
      2040         1020.000000         0.738238463       305.326772282     -9597.498701409     -9596.713648575      2265.916775445
      2041         1020.500000         0.736355211       304.547881491     -9597.497290983     -9596.713579832      2455.921036241
      2042         1021.000000         0.728166465       301.161111989     -9597.489535161     -9596.713369351      2797.582241680
      2043         1021.500000         0.718114441       297.003713003     -9597.479935924     -9596.713136118      2269.375817348
      2044         1022.000000         0.712321278       294.607728541     -9597.473181628     -9596.713016210      2453.905858550
      2045         1022.500000         0.710941716       294.037157865     -9597.472380335     -9596.713026109      2257.254717999
      2046         1023.000000         0.716240951       296.228859343     -9597.478538698     -9596.713131052      2908.280781521
      2047         1023.500000         0.728375643       301.247625579     -9597.490741797     -9596.713337716      2372.201879585
      2048         1024.000000         0.743214740       307.384902140     -9597.506235909     -9596.713627579      2256.457216381
      2049         1024.500000         0.756663326       312.947079884     -9597.520731505     -9596.713922553      2201.254275504
      2050         1025.000000         0.766789994       317.135351010     -9597.529536152     -9596.714129470      2089.777107294
      2051         1025.500000         0.765859773       316.750622488     -9597.529247114     -9596.714132589      2164.826895497
      2052         1026.000000         0.756857944       313.027571351     -9597.519443573     -9596.713892000      2784.423673580
      2053         1026.500000         0.740991463       306.465380834     -9597.503208042     -9596.713474666      3004.088256818
      2054         1027.000000         0.725747752       300.160760934     -9597.486304106     -9596.713014715      2249.929329310
      2055         1027.500000         0.715013889       295.721360977     -9597.475222950     -9596.712697871      2446.639744289
      2056         1028.000000         0.712597888       294.722131058     -9597.474186420     -9596.712685003      2312.265103459
      2057         1028.500000         0.722130687       298.664785177     -9597.482804376     -9596.713003369      2311.848705886
      2058         1029.000000         0.735623351       304.245192824     -9597.496142926     -9596.713463999      3006.452576234
      2059         1029.500000         0.746597944       308.784155569     -9597.507446151     -9596.713848818      2347.614164872
      2060         1030.000000         0.751283250       310.721943242     -9597.511451805     -9596.713985093      2217.031070693
      2061         1030.500000         0.746835362       308.882349064     -9597.506703525     -9596.713861130      2966.951124892
      2062         1031.000000         0.737387902       304.974990319     -9597.495966909     -9596.713576101      2092.884278499
      2063         1031.500000         0.725817488       300.189602599     -9597.484589662     -9596.713299682      2119.856323544
      2064         1032.000000         0.720632862       298.045302079     -9597.477811842     -9596.713169666      2961.775279162
      2065         1032.500000         0.723361952       299.174021920     -9597.478563410     -9596.713219139      2366.127014996
      2066         1033.000000         0.729799534       301.836530467     -9597.486808597     -9596.713411576      2373.793059704
      2067         1033.500000         0.742757308       307.195713506     -9597.499921573     -9596.713699473      2369.987140031
      2068         1034.000000         0.757009737       313.090351142     -9597.513378910     -9596.713994220      2508.132037309
      2069         1034.500000         0.765011085       316.399614867     -9597.522164207     -9596.714149889      2319.468895083
      2070         1035.000000         0.765557308       316.625526455     -9597.522961788     -9596.714076209      4256.341278739
      2070         1035.000000         0.765557308       316.625526455     -9597.522961788     -9596.714076209      4242.301650660
      2071         1035.500000         0.757376724       313.242132860     -9597.515561178     -9596.713795704      3113.495011507
      2071         1035.500000         0.757376724       313.242132860     -9597.515561178     -9596.713795704      3102.538197242
      2072         1036.000000         0.744909067       308.085655916     -9597.502805738     -9596.713407022      1920.333377286
      2072         1036.000000         0.744909067       308.085655916     -9597.502805738     -9596.713407022      1915.741344471
      2073         1036.500000         0.732562640       302.979318353     -9597.489236318     -9596.713001343      1968.984245138
      2073         1036.500000         0.732562640       302.979318353     -9597.489236318     -9596.713001343      1962.962171835
      2074         1037.000000         0.722778946       298.932897358     -9597.479660533     -9596.712653122      2249.332026785
      2074         1037.000000         0.722778946       298.932897358     -9597.479660533     -9596.712653122      2154.920329300
      2075         1037.500000         0.721278069       298.312152139     -9597.477944994     -9596.712451407      3006.341497460
      2075         1037.500000         0.721278069       298.312152139     -9597.477944994     -9596.712451407      2998.466817131
      2076         1038.000000         0.727772570       300.998201711     -9597.485588050     -9596.712531326      2304.001281857
      2076         1038.000000         0.727772570       300.998201711     -9597.485588050     -9596.712531326      2303.455999179
      2077         1038.500000         0.740992274       306.465716295     -9597.500275869     -9596.712854724      2201.629728591
      2077         1038.500000         0.740992274       306.465716295     -9597.500275869     -9596.712854724      2205.606795485
      2078         1039.000000         0.756594294       312.918528825     -9597.516331450     -9596.713269264      2143.493288086
      2078         1039.000000         0.756594294       312.918528824     -9597.516331450     -9596.713269264      2138.416031432
      2079         1039.500000         0.767712241       317.516781519     -9597.527136377     -9596.713549467      2147.989092485
      2079         1039.500000         0.767712241       317.516781518     -9597.527136377     -9596.713549467      2148.587012806
      2080         1040.000000         0.767654455       317.492881647     -9597.528432078     -9596.713534904      2852.222789448
      2080         1040.000000         0.767654455       317.492881646     -9597.528432078     -9596.713534904      2855.399261943
      2081         1040.500000         0.759882829       314.278628320     -9597.520737692     -9596.713220321      2956.532246696
      2081         1040.500000         0.759882829       314.278628318     -9597.520737692     -9596.713220322      2949.431471363
      2082         1041.000000         0.749599230       310.025452246     -9597.509251893     -9596.712783045      2084.680184764
      2082         1041.000000         0.749599230       310.025452244     -9597.509251893     -9596.712783045      2086.783069630
      2083         1041.500000         0.741207737       306.554829436     -9597.501049475     -9596.712500295      2036.686883402
      2083         1041.500000         0.741207737       306.554829434     -9597.501049475     -9596.712500295      2030.456618299
      2084         1042.000000         0.740974745       306.458466711     -9597.501163216     -9596.712513296      2224.900579012
      2084         1042.000000         0.740974745       306.458466709     -9597.501163216     -9596.712513296      2199.852143172
      2085         1042.500000         0.748932587       309.749736630     -9597.510354223     -9596.712774143      2953.361467188
      2085         1042.500000         0.748932587       309.749736627     -9597.510354223     -9596.712774143      2950.878172637
      2086         1043.000000         0.763821144       315.907469219     -9597.525400325     -9596.713150599      2450.267570047
      2086         1043.000000         0.763821144       315.907469216     -9597.525400325     -9596.713150599      2444.358980032
      2087         1043.500000         0.779916910       322.564489298     -9597.540923540     -9596.713507447      2462.118069427
      2087         1043.500000         0.779916910       322.564489294     -9597.540923540     -9596.713507447      2440.474380856
      2088         1044.000000         0.791341407       327.289527415     -9597.551650513     -9596.713726093      3014.181027009
      2088         1044.000000         0.791341407       327.289527412     -9597.551650513     -9596.713726093      3011.961352529
      2089         1044.500000         0.793188272       328.053369235     -9597.554176546     -9596.713753606      3017.565258623
      2089         1044.500000         0.793188272       328.053369233     -9597.554176546     -9596.713753606      3012.274754164
      2090         1045.000000         0.787309795       325.622100132     -9597.547880879     -9596.713602511      3130.958198824
      2090         1045.000000         0.787309795       325.622100131     -9597.547880879     -9596.713602511      3112.093394474
      2091         1045.500000         0.774669934       320.394401516     -9597.534756740     -9596.713327744      3068.378198630
      2091         1045.500000         0.774669934       320.394401517     -9597.534756740     -9596.713327744      3062.473438911
      2092         1046.000000         0.757635169       313.349022553     -9597.518636606     -9596.712996101      1982.955845407
      2092         1046.000000         0.757635169       313.349022555     -9597.518636606     -9596.712996101      1970.011021790
      2093         1046.500000         0.744893124       308.079062014     -9597.503954400     -9596.712710680      1973.759331064
      2093         1046.500000         0.744893124       308.079062019     -9597.503954400     -9596.712710680      1976.993829522
      2094         1047.000000         0.735492369       304.191020152     -9597.494273257     -9596.712539778      2961.087451872
      2094         1047.000000         0.735492369       304.191020157     -9597.494273257     -9596.712539778      2955.796777414
      2095         1047.500000         0.734400572       303.739465599     -9597.491385994     -9596.712506244      2145.566181567
      2095         1047.500000         0.734400572       303.739465605     -9597.491385994     -9596.712506244      2142.680566395
      2096         1048.000000         0.737307412       304.941700688     -9597.495067467     -9596.712623796      2087.608451355
      2096         1048.000000         0.737307412       304.941700693     -9597.495067467     -9596.712623796      2088.508055721
      2097         1048.500000         0.745501985       308.330880107     -9597.503057768     -9596.712881007      2203.346266521
      2097         1048.500000         0.745501985       308.330880110     -9597.503057768     -9596.712881007      2202.847082217
      2098         1049.000000         0.752853102       311.371215723     -9597.511270535     -9596.713204791      2205.838670113
      2098         1049.000000         0.752853102       311.371215725     -9597.511270535     -9596.713204791      2194.205545116
      2099         1049.500000         0.755961809       312.656940526     -9597.514885111     -9596.713459639      2202.031168025
      2099         1049.500000         0.755961809       312.656940526     -9597.514885111     -9596.713459639      2212.751267959
      2100         1050.000000         0.753523413       311.648448299     -9597.510558984     -9596.713476936      2964.743059123
      2100         1050.000000         0.753523413       311.648448296     -9597.510558984     -9596.713476936      2962.222975959
      2101         1050.500000         0.742675242       307.161772345     -9597.498757606     -9596.713221554      2034.614017489
      2101         1050.500000         0.742675242       307.161772341     -9597.498757606     -9596.713221554      2029.515044593
      2102         1051.000000         0.728245073       301.193623313     -9597.484244963     -9596.712864279      2092.809365641
      2102         1051.000000         0.728245073       301.193623309     -9597.484244963     -9596.712864279      2077.846086900
      2103         1051.500000         0.717436759       296.723431710     -9597.473430707     -9596.712636670      1973.911651365
      2103         1051.500000         0.717436759       296.723431706     -9597.473430707     -9596.712636670      1979.342931133
      2104         1052.000000         0.715585700       295.957855041     -9597.470720183     -9596.712699158      2317.061777989
      2104         1052.000000         0.715585700       295.957855038     -9597.470720183     -9596.712699158      2311.937335792
      2105         1052.500000         0.719273065       297.482905946     -9597.476181365     -9596.712988286      3122.998631156
      2105         1052.500000         0.719273064       297.482905943     -9597.476181365     -9596.712988286      3105.049931420
      2106         1053.000000         0.727900983       301.051311690     -9597.486171710     -9596.713324780      2319.080274494
      2106         1053.000000         0.727900983       301.051311687     -9597.486171710     -9596.713324780      2305.842143691
      2107         1053.500000         0.737418077       304.987470331     -9597.495997618     -9596.713581674      2954.479954057
      2107         1053.500000         0.737418077       304.987470327     -9597.495997618     -9596.713581674      2951.272961223
      2108         1054.000000         0.744047505       307.729324214     -9597.502123075     -9596.713688620      2366.996784971
      2108         1054.000000         0.744047505       307.729324209     -9597.502123075     -9596.713688620      2367.633502342
      2109         1054.500000         0.744937903       308.097582411     -9597.502970188     -9596.713693236      2948.994259882
      2109         1054.500000         0.744937903       308.097582406     -9597.502970188     -9596.713693236      2947.592523435
      2110         1055.000000         0.739740625       305.948048798     -9597.498747982     -9596.713582225      2499.015164486
      2110         1055.000000         0.739740625       305.948048794     -9597.498747982     -9596.713582225      2510.409307229
      2111         1055.500000         0.732400310       302.912180764     -9597.491186566     -9596.713365949      2500.536275969
      2111         1055.500000         0.732400310       302.912180754     -9597.491186564     -9596.713365947      2493.658387917
      2112         1056.000000         0.724110032       299.483418982     -9597.483069112     -9596.713154180      2502.774372149
      2112         1056.000000         0.724110032       299.483419041     -9597.483069112     -9596.713154180      2450.555003339
      2113         1056.500000         0.718330168       297.092934837     -9597.476969184     -9596.713017211      2912.153264712
      2113         1056.500000         0.718330174       297.092937480     -9597.476969257     -9596.713017277      2893.961251180
      2114         1057.000000         0.716112161       296.175593425     -9597.474198282     -9596.712965891      2312.539777487
      2114         1057.000000         0.716112168       296.175596162     -9597.474198276     -9596.712965878      2303.933998700
      2115         1057.500000         0.715890157       296.083774915     -9597.474812096     -9596.712961165      2264.448081759
      2115         1057.500000         0.715890156       296.083774453     -9597.474812082     -9596.712961153      2251.025346228
      2116         1058.000000         0.719008977       297.373682626     -9597.478193355     -9596.713003911      2156.280962251
      2116         1058.000000         0.719008968       297.373678655     -9597.478193332     -9596.713003897      2162.492154447
      2117         1058.500000         0.723198124       299.106264480     -9597.483017049     -9596.713138363      2969.407972126
      2117         1058.500000         0.723198107       299.106257504     -9597.483017020     -9596.713138350      2962.354867686
      2118         1059.000000         0.727574141       300.916134047     -9597.486945488     -9596.713300905      2159.558001848
      2118         1059.000000         0.727574121       300.916125467     -9597.486945452     -9596.713300890      2144.371248467
      2119         1059.500000         0.728115876       301.140189176     -9597.487681909     -9596.713333969      2094.797620206
      2119         1059.500000         0.728115856       301.140180924     -9597.487681875     -9596.713333955      2102.019781294
      2120         1060.000000         0.725689559       300.136692918     -9597.484980788     -9596.713184320      2139.496661283
      2120         1060.000000         0.725689544       300.136686633     -9597.484980759     -9596.713184307      2126.863269857
      2121         1060.500000         0.724160643       299.504351286     -9597.481143408     -9596.713018032      2040.053430604
      2121         1060.500000         0.724160636       299.504348029     -9597.481143387     -9596.713018019      2036.305233632
      2122         1061.000000         0.721626466       298.456245369     -9597.478932575     -9596.712970786      2051.453815659
      2122         1061.000000         0.721626467       298.456245705     -9597.478932562     -9596.712970773      2036.702230396
      2123         1061.500000         0.721386537       298.357013268     -9597.479542721     -9596.713056409      2750.036734757
      2123         1061.500000         0.721386547       298.357017386     -9597.479542718     -9596.713056396      2732.876090569
      2124         1062.000000         0.723659135       299.296933202     -9597.482389771     -9596.713150735      3089.783799331
      2124         1062.000000         0.723659153       299.296940792     -9597.482389777     -9596.713150722      3064.325392782
      2125         1062.500000         0.728643834       301.358546203     -9597.486433312     -9596.713206654      2145.287078544
      2125         1062.500000         0.728643809       301.358536057     -9597.486433300     -9596.713206666      2155.059585427
      2126         1063.000000         0.732248651       302.849456389     -9597.491098838     -9596.713255674      2044.923907015
      2126         1063.000000         0.732248678       302.849467747     -9597.491098859     -9596.713255668      2056.690194926
      2127         1063.500000         0.737196977       304.896026020     -9597.496024468     -9596.713345859      2149.822012491
      2127         1063.500000         0.737196949       304.896014494     -9597.496024452     -9596.713345871      2168.300431152
      2128         1064.000000         0.742001576       306.883151828     -9597.500305834     -9596.713507985      2095.852885499
      2128         1064.000000         0.742001549       306.883140621     -9597.500305821     -9596.713507999      2094.712866188
      2129         1064.500000         0.743286369       307.414526979     -9597.502419260     -9596.713622625      2954.651739994
      2129         1064.500000         0.743286343       307.414516269     -9597.502419244     -9596.713622635      2970.329556148
      2130         1065.000000         0.740774467       306.375634054     -9597.501625111     -9596.713618435      2833.289566021
      2130         1065.000000         0.740774443       306.375623915     -9597.501625099     -9596.713618447      2854.928453137
      2131         1065.500000         0.738503213       305.436269845     -9597.499032425     -9596.713515374      3065.285467278
      2131         1065.500000         0.738503190       305.436260511     -9597.499032415     -9596.713515387      3075.212270487
      2132         1066.000000         0.737080856       304.847999744     -9597.496877734     -9596.713458279      2368.753451033
      2132         1066.000000         0.737080837       304.847991670     -9597.496877727     -9596.713458291      2393.462415494
      2133         1066.500000         0.737223768       304.907106325     -9597.496521732     -9596.713526114      2213.917360045
      2133         1066.500000         0.737223753       304.907100266     -9597.496521732     -9596.713526128      2217.289792270
      2134         1067.000000         0.737069814       304.843432667     -9597.497455469     -9596.713653152      2782.451119851
      2134         1067.000000         0.737069805       304.843429220     -9597.497455473     -9596.713653165      2788.678557096
      2135         1067.500000         0.738417497       305.400818612     -9597.498157281     -9596.713750973      2893.383448959
      2135         1067.500000         0.738417495       305.400817897     -9597.498157290     -9596.713750985      2905.922233541
      2136         1068.000000         0.738439808       305.410046530     -9597.497468698     -9596.713778199      2032.975819442
      2136         1068.000000         0.738439813       305.410048247     -9597.497468715     -9596.713778212      2029.968045760
      2137         1068.500000         0.736800415       304.732012677     -9597.495332501     -9596.713749684      2089.312681922
      2137         1068.500000         0.736800424       304.732016186     -9597.495332521     -9596.713749696      2101.228196070
      2138         1069.000000         0.735570913       304.223504847     -9597.492648430     -9596.713679826      2893.484347616
      2138         1069.000000         0.735570924       304.223509550     -9597.492648453     -9596.713679839      2907.106956447
      2139         1069.500000         0.733885514       303.526443891     -9597.490964176     -9596.713600029      4361.840567035
      2139         1069.500000         0.733885514       303.526443891     -9597.490964176     -9596.713600029      4383.003982134
      2140         1070.000000         0.734945283       303.964751888     -9597.491976675     -9596.713608577      2918.474100039
      2140         1070.000000         0.734945283       303.964751888     -9597.491976675     -9596.713608577      2882.822513831
      2141         1070.500000         0.739538345       305.864388232     -9597.496112983     -9596.713767445      2099.738872635
      2141         1070.500000         0.739538345       305.864388232     -9597.496112983     -9596.713767445      2084.914562866
      2142         1071.000000         0.745027384       308.134590552     -9597.501497459     -9596.714036331      2043.560566224
      2142         1071.000000         0.745027386       308.134591404     -9597.501497488     -9596.714036358      2028.083080024
      2143         1071.500000         0.747952997       309.344589857     -9597.504884458     -9596.714219162      2154.240369306
      2143         1071.500000         0.747953003       309.344592051     -9597.504884459     -9596.714219158      2142.531205280
      2144         1072.000000         0.746218331       308.627152439     -9597.504169383     -9596.714213729      2025.456518293
      2144         1072.000000         0.746218338       308.627155079     -9597.504169385     -9596.714213725      2029.724742157
      2145         1072.500000         0.741566177       306.703075995     -9597.499922658     -9596.714083287      2012.108661320
      2145         1072.500000         0.741566185       306.703079129     -9597.499922665     -9596.714083287      1991.905258718
      2146         1073.000000         0.735883477       304.352777851     -9597.494686588     -9596.713964559      2054.659245242
      2146         1073.000000         0.735883486       304.352781695     -9597.494686594     -9596.713964555      2021.498356673
      2147         1073.500000         0.732360175       302.895581458     -9597.490932983     -9596.713940559      1995.395013765
      2147         1073.500000         0.732360158       302.895574517     -9597.490934146     -9596.713941739      2034.411408629
      2148         1074.000000         0.732450720       302.933029822     -9597.489840829     -9596.713987848      2026.160788244
      2148         1074.000000         0.732450693       302.933018658     -9597.489841198     -9596.713988244      2018.382084840
      2149         1074.500000         0.734261389       303.681901069     -9597.491507484     -9596.714093272      2142.389884728