ATOMS
H             0.00000000      0.00000000     -0.00998254            -0.00104341      0.70710601     -0.00001523
H             0.00000000      0.00000000      0.73998166             0.00104341     -0.70710601      0.00001523
