ATOMS
H             0.00000000      0.00000000     -0.00998254             0.70710600      0.00104341      0.00010785
H             0.00000000      0.00000000      0.73998166            -0.70710600     -0.00104341     -0.00010785
