ATOMS
H             0.00000000      0.00000000     -0.00998254             0.70710478      0.00167783      0.00009026
H             0.00000000      0.00000000      0.73998166            -0.70710478     -0.00167783     -0.00009026
