ATOMS
H             0.00000000      0.00000000     -0.00998254             0.00000318      0.12250045      0.69641485
H             0.00000000      0.00000000      0.73998166             0.00000318      0.12250045      0.69641485
