ATOMS
H             0.00000000      0.00000000     -0.00998254            -0.00118439      0.70710579     -0.00001854
H             0.00000000      0.00000000      0.73998166             0.00118439     -0.70710579      0.00001854
