     116
 i =        1, E =     -3518.0853357353
 Au         0.0000000000        0.0000000000        0.0000000000
 Au         0.0000000000        4.1460000000        0.0000000000
 Au         2.0730000000        2.0730000000        0.0000000000
 Au         2.0730000000        6.2190000000        0.0000000000
 Au         4.1460000000        0.0000000000        0.0000000000
 Au         4.1460000000        4.1460000000        0.0000000000
 Au         6.2190000000        2.0730000000        0.0000000000
 Au         6.2190000000        6.2190000000        0.0000000000
 Au         0.0000000000        2.0730000000        2.0730000000
 Au         0.0000000000        6.2190000000        2.0730000000
 Au         2.0730000000        0.0000000000        2.0730000000
 Au         2.0730000000        4.1460000000        2.0730000000
 Au         4.1460000000        2.0730000000        2.0730000000
 Au         4.1460000000        6.2190000000        2.0730000000
 Au         6.2190000000        0.0000000000        2.0730000000
 Au         6.2190000000        4.1460000000        2.0730000000
 Au         0.0000000000        0.0000000000        4.1460000000
 Au         0.0000000000        4.1460000000        4.1460000000
 Au         2.0730000000        2.0730000000        4.1460000000
 Au         2.0730000000        6.2190000000        4.1460000000
 Au         4.1460000000        0.0000000000        4.1460000000
 Au         4.1460000000        4.1460000000        4.1460000000
 Au         6.2190000000        2.0730000000        4.1460000000
 Au         6.2190000000        6.2190000000        4.1460000000
 Au         0.0000000000        2.0730000000        6.2190000000
 Au         0.0000000000        6.2190000000        6.2190000000
 Au         2.0730000000        0.0000000000        6.2190000000
 Au         2.0730000000        4.1460000000        6.2190000000
 Au         4.1460000000        2.0730000000        6.2190000000
 Au         4.1460000000        6.2190000000        6.2190000000
 Au         6.2190000000        0.0000000000        6.2190000000
 Au         6.2190000000        4.1460000000        6.2190000000
 Au         0.0000000000        0.0000000000        8.2920000000
 Au         0.0000000000        4.1460000000        8.2920000000
 Au         2.0730000000        2.0730000000        8.2920000000
 Au         2.0730000000        6.2190000000        8.2920000000
 Au         4.1460000000        0.0000000000        8.2920000000
 Au         4.1460000000        4.1460000000        8.2920000000
 Au         6.2190000000        2.0730000000        8.2920000000
 Au         6.2190000000        6.2190000000        8.2920000000
 Au        -0.0000336360        2.0729812169       10.3774679188
 Au        -0.0000120751        6.2189497826       10.3594864869
 Au         2.0720047276       -0.0002393625       10.3547101851
 Au         2.0720238399        4.1463481242       10.3546583205
 Au         4.1459862343        2.0729146584       10.3087759016
 Au         4.1459984733        6.2188064231       10.3764627790
 Au         6.2199982387       -0.0002405431       10.3546910235
 Au         6.2199796918        4.1463495058       10.3546380539
 Au         0.0000255411       -0.0083953862       12.4420322164
 Au         0.0000261381        4.1544974497       12.4421060157
 Au         1.9671836294        2.0730360661       12.4413968407
 Au         2.0640772384        6.2189573170       12.4414135925
 Au         4.1459870839       -0.1141562036       12.4269614770
 Au         4.1459881576        4.2598636024       12.4270350321
 Au         6.3247754949        2.0730381249       12.4414039674
 Au         6.2279233547        6.2189580036       12.4414169160
  S         4.1463211681        2.0757973900       14.0228094056
  C         4.1433062058        2.0906396840       15.8084658119
  H         1.9797530712        2.0975458021       15.9299022907
  H         6.3086067436        2.0973919352       15.9399231389
  C         2.9072037703        2.0745141422       16.4773758684
  C         5.3759657175        2.0746747179       16.4792590268
  C         2.9057598038        2.0695065285       17.8815840061
  C         5.3749094295        2.0695869881       17.8829189213
  H         1.9715491774        2.0466426100       18.4212735977
  H         6.3029896659        2.0464622394       18.4315201450
  C         4.1390201596        2.0543000448       18.5521090152
  S         4.1411008673        2.0698227945       20.3375860193
 Au         0.0002930882       -0.0068868974       21.9193558248
 Au         0.0002847214        4.1527873673       21.9194323805
 Au         1.9649155309        2.0729934075       21.9207330394
 Au         2.0653698226        6.2190072949       21.9200388209
 Au         4.1463802636       -0.1164935675       21.9351727126
 Au         4.1463887672        4.2629163464       21.9352797165
 Au         6.3272473032        2.0729970723       21.9206769324
 Au         6.2190000000        6.2190000000       21.9230000000
 Au         0.0000000000        2.0730000000       23.9960000000
 Au         0.0000000000        6.2190000000       23.9960000000
 Au         2.0730000000        0.0000000000       23.9960000000
 Au         2.0730000000        4.1460000000       23.9960000000
 Au         4.1460000000        2.0730000000       23.9960000000
 Au         4.1460000000        6.2190000000       23.9960000000
 Au         6.2190000000        0.0000000000       23.9960000000
 Au         6.2190000000        4.1460000000       23.9960000000
 Au         0.0000000000        0.0000000000       26.0690000000
 Au         0.0000000000        4.1460000000       26.0690000000
 Au         2.0730000000        2.0730000000       26.0690000000
 Au         2.0730000000        6.2190000000       26.0690000000
 Au         4.1460000000        0.0000000000       26.0690000000
 Au         4.1460000000        4.1460000000       26.0690000000
 Au         6.2190000000        2.0730000000       26.0690000000
 Au         6.2190000000        6.2190000000       26.0690000000
 Au         0.0000000000        2.0730000000       28.1420000000
 Au         0.0000000000        6.2190000000       28.1420000000
 Au         2.0730000000        0.0000000000       28.1420000000
 Au         2.0730000000        4.1460000000       28.1420000000
 Au         4.1460000000        2.0730000000       28.1420000000
 Au         4.1460000000        6.2190000000       28.1420000000
 Au         6.2190000000        0.0000000000       28.1420000000
 Au         6.2190000000        4.1460000000       28.1420000000
 Au         0.0000000000        0.0000000000       30.2150000000
 Au         0.0000000000        4.1460000000       30.2150000000
 Au         2.0730000000        2.0730000000       30.2150000000
 Au         2.0730000000        6.2190000000       30.2150000000
 Au         4.1460000000        0.0000000000       30.2150000000
 Au         4.1460000000        4.1460000000       30.2150000000
 Au         6.2190000000        2.0730000000       30.2150000000
 Au         6.2190000000        6.2190000000       30.2150000000
 Au         0.0000000000        2.0730000000       32.2880000000
 Au         0.0000000000        6.2190000000       32.2880000000
 Au         2.0730000000        0.0000000000       32.2880000000
 Au         2.0730000000        4.1460000000       32.2880000000
 Au         4.1460000000        2.0730000000       32.2880000000
 Au         4.1460000000        6.2190000000       32.2880000000
 Au         6.2190000000        0.0000000000       32.2880000000
 Au         6.2190000000        4.1460000000       32.2880000000
     116
 i =        2, E =     -3518.0896910761
 Au         0.0000000000        0.0000000000        0.0000000000
 Au         0.0000000000        4.1460000000        0.0000000000
 Au         2.0730000000        2.0730000000        0.0000000000
 Au         2.0730000000        6.2190000000        0.0000000000
 Au         4.1460000000        0.0000000000        0.0000000000
 Au         4.1460000000        4.1460000000        0.0000000000
 Au         6.2190000000        2.0730000000        0.0000000000
 Au         6.2190000000        6.2190000000        0.0000000000
 Au         0.0000000000        2.0730000000        2.0730000000
 Au         0.0000000000        6.2190000000        2.0730000000
 Au         2.0730000000        0.0000000000        2.0730000000
 Au         2.0730000000        4.1460000000        2.0730000000
 Au         4.1460000000        2.0730000000        2.0730000000
 Au         4.1460000000        6.2190000000        2.0730000000
 Au         6.2190000000        0.0000000000        2.0730000000
 Au         6.2190000000        4.1460000000        2.0730000000
 Au         0.0000000000        0.0000000000        4.1460000000
 Au         0.0000000000        4.1460000000        4.1460000000
 Au         2.0730000000        2.0730000000        4.1460000000
 Au         2.0730000000        6.2190000000        4.1460000000
 Au         4.1460000000        0.0000000000        4.1460000000
 Au         4.1460000000        4.1460000000        4.1460000000
 Au         6.2190000000        2.0730000000        4.1460000000
 Au         6.2190000000        6.2190000000        4.1460000000
 Au         0.0000000000        2.0730000000        6.2190000000
 Au         0.0000000000        6.2190000000        6.2190000000
 Au         2.0730000000        0.0000000000        6.2190000000
 Au         2.0730000000        4.1460000000        6.2190000000
 Au         4.1460000000        2.0730000000        6.2190000000
 Au         4.1460000000        6.2190000000        6.2190000000
 Au         6.2190000000        0.0000000000        6.2190000000
 Au         6.2190000000        4.1460000000        6.2190000000
 Au         0.0000000000        0.0000000000        8.2920000000
 Au         0.0000000000        4.1460000000        8.2920000000
 Au         2.0730000000        2.0730000000        8.2920000000
 Au         2.0730000000        6.2190000000        8.2920000000
 Au         4.1460000000        0.0000000000        8.2920000000
 Au         4.1460000000        4.1460000000        8.2920000000
 Au         6.2190000000        2.0730000000        8.2920000000
 Au         6.2190000000        6.2190000000        8.2920000000
 Au         0.0000174293        2.0730126209       10.3592785604
 Au        -0.0000046898        6.2189408815       10.3599137922
 Au         2.0755407502        0.0058745779       10.3564420088
 Au         2.0755846151        4.1402673297       10.3563083744
 Au         4.1460142645        2.0727813849       10.3299750736
 Au         4.1459872276        6.2183755561       10.3494916326
 Au         6.2164539762        0.0058757271       10.3564555170
 Au         6.2164119556        4.1402672904       10.3563195618
 Au         0.0000414324       -0.0362056782       12.4490530842
 Au         0.0000437073        4.1824268787       12.4491843424
 Au         1.9580437590        2.0728122956       12.4605871819
 Au         2.0327011321        6.2190439925       12.4487701541
 Au         4.1459774821       -0.1261412387       12.4375522957
 Au         4.1459781710        4.2721555332       12.4375001313
 Au         6.3339344295        2.0728141215       12.4607049584
 Au         6.2592802925        6.2190460104       12.4487499171
  S         4.1459473130        2.0814514000       13.9828015432
  C         4.1438026316        2.0741601520       15.7794808867
  H         1.9827131726        2.0897119222       15.9300256355
  H         6.3042530691        2.0896466356       15.9378230756
  C         2.9235187061        2.0942310547       16.4790994862
  C         5.3615176018        2.0940578949       16.4839042094
  C         2.9211131361        2.0506770679       17.8765504661
  C         5.3583347977        2.0506063710       17.8810286153
  H         1.9775160481        2.0543916913       18.4225734665
  H         6.2995895640        2.0542587099       18.4303465786
  C         4.1386370721        2.0704081447       18.5813576342
  S         4.1395443800        2.0641393482       20.3774131197
 Au        -0.0005685222       -0.0344175786       21.9107457843
 Au        -0.0005813038        4.1801602412       21.9108813629
 Au         1.9524354850        2.0732893579       21.8961868828
 Au         2.0346393638        6.2189228919       21.9105736194
 Au         4.1454292390       -0.1306140639       21.9187020355
 Au         4.1454394418        4.2764984807       21.9186244359
 Au         6.3391200303        2.0732907687       21.8961856480
 Au         6.2190000000        6.2190000000       21.9230000000
 Au         0.0000000000        2.0730000000       23.9960000000
 Au         0.0000000000        6.2190000000       23.9960000000
 Au         2.0730000000        0.0000000000       23.9960000000
 Au         2.0730000000        4.1460000000       23.9960000000
 Au         4.1460000000        2.0730000000       23.9960000000
 Au         4.1460000000        6.2190000000       23.9960000000
 Au         6.2190000000        0.0000000000       23.9960000000
 Au         6.2190000000        4.1460000000       23.9960000000
 Au         0.0000000000        0.0000000000       26.0690000000
 Au         0.0000000000        4.1460000000       26.0690000000
 Au         2.0730000000        2.0730000000       26.0690000000
 Au         2.0730000000        6.2190000000       26.0690000000
 Au         4.1460000000        0.0000000000       26.0690000000
 Au         4.1460000000        4.1460000000       26.0690000000
 Au         6.2190000000        2.0730000000       26.0690000000
 Au         6.2190000000        6.2190000000       26.0690000000
 Au         0.0000000000        2.0730000000       28.1420000000
 Au         0.0000000000        6.2190000000       28.1420000000
 Au         2.0730000000        0.0000000000       28.1420000000
 Au         2.0730000000        4.1460000000       28.1420000000
 Au         4.1460000000        2.0730000000       28.1420000000
 Au         4.1460000000        6.2190000000       28.1420000000
 Au         6.2190000000        0.0000000000       28.1420000000
 Au         6.2190000000        4.1460000000       28.1420000000
 Au         0.0000000000        0.0000000000       30.2150000000
 Au         0.0000000000        4.1460000000       30.2150000000
 Au         2.0730000000        2.0730000000       30.2150000000
 Au         2.0730000000        6.2190000000       30.2150000000
 Au         4.1460000000        0.0000000000       30.2150000000
 Au         4.1460000000        4.1460000000       30.2150000000
 Au         6.2190000000        2.0730000000       30.2150000000
 Au         6.2190000000        6.2190000000       30.2150000000
 Au         0.0000000000        2.0730000000       32.2880000000
 Au         0.0000000000        6.2190000000       32.2880000000
 Au         2.0730000000        0.0000000000       32.2880000000
 Au         2.0730000000        4.1460000000       32.2880000000
 Au         4.1460000000        2.0730000000       32.2880000000
 Au         4.1460000000        6.2190000000       32.2880000000
 Au         6.2190000000        0.0000000000       32.2880000000
 Au         6.2190000000        4.1460000000       32.2880000000
     116
 i =        3, E =     -3518.0895553267
 Au         0.0000000000        0.0000000000        0.0000000000
 Au         0.0000000000        4.1460000000        0.0000000000
 Au         2.0730000000        2.0730000000        0.0000000000
 Au         2.0730000000        6.2190000000        0.0000000000
 Au         4.1460000000        0.0000000000        0.0000000000
 Au         4.1460000000        4.1460000000        0.0000000000
 Au         6.2190000000        2.0730000000        0.0000000000
 Au         6.2190000000        6.2190000000        0.0000000000
 Au         0.0000000000        2.0730000000        2.0730000000
 Au         0.0000000000        6.2190000000        2.0730000000
 Au         2.0730000000        0.0000000000        2.0730000000
 Au         2.0730000000        4.1460000000        2.0730000000
 Au         4.1460000000        2.0730000000        2.0730000000
 Au         4.1460000000        6.2190000000        2.0730000000
 Au         6.2190000000        0.0000000000        2.0730000000
 Au         6.2190000000        4.1460000000        2.0730000000
 Au         0.0000000000        0.0000000000        4.1460000000
 Au         0.0000000000        4.1460000000        4.1460000000
 Au         2.0730000000        2.0730000000        4.1460000000
 Au         2.0730000000        6.2190000000        4.1460000000
 Au         4.1460000000        0.0000000000        4.1460000000
 Au         4.1460000000        4.1460000000        4.1460000000
 Au         6.2190000000        2.0730000000        4.1460000000
 Au         6.2190000000        6.2190000000        4.1460000000
 Au         0.0000000000        2.0730000000        6.2190000000
 Au         0.0000000000        6.2190000000        6.2190000000
 Au         2.0730000000        0.0000000000        6.2190000000
 Au         2.0730000000        4.1460000000        6.2190000000
 Au         4.1460000000        2.0730000000        6.2190000000
 Au         4.1460000000        6.2190000000        6.2190000000
 Au         6.2190000000        0.0000000000        6.2190000000
 Au         6.2190000000        4.1460000000        6.2190000000
 Au         0.0000000000        0.0000000000        8.2920000000
 Au         0.0000000000        4.1460000000        8.2920000000
 Au         2.0730000000        2.0730000000        8.2920000000
 Au         2.0730000000        6.2190000000        8.2920000000
 Au         4.1460000000        0.0000000000        8.2920000000
 Au         4.1460000000        4.1460000000        8.2920000000
 Au         6.2190000000        2.0730000000        8.2920000000
 Au         6.2190000000        6.2190000000        8.2920000000
 Au         0.0000046574        2.0731743116       10.3557301832
 Au        -0.0000035259        6.2189611304       10.3485165969
 Au         2.0803093105        0.0130991245       10.3651232610
 Au         2.0801498348        4.1326499348       10.3649645918
 Au         4.1460166554        2.0728283080       10.3589854491
 Au         4.1459645007        6.2185173689       10.3371536288
 Au         6.2117465110        0.0131206050       10.3651910618
 Au         6.2119080395        4.1326307869       10.3650317684
 Au         0.0000424094       -0.0524441036       12.4559406588
 Au         0.0000438425        4.1986237973       12.4559901537
 Au         1.9485680229        2.0722514218       12.4776584136
 Au         2.0126330962        6.2193879644       12.4548523735
 Au         4.1459769139       -0.1376586278       12.4452644270
 Au         4.1459779494        4.2857589487       12.4451652079
 Au         6.3435344263        2.0722537007       12.4777875975
 Au         6.2793231257        6.2193892731       12.4548034574
  S         4.1458768852        2.0821495202       13.9594077324
  C         4.1437175460        2.1028488150       15.7669270406
  H         1.9850516819        2.0901360674       15.9332193827
  H         6.3014079338        2.0900632591       15.9399923575
  C         2.9291983127        2.0612210805       16.4788895212
  C         5.3565086955        2.0610522274       16.4841349663
  C         2.9254362316        2.0836646057       17.8764733555
  C         5.3538247845        2.0834035321       17.8816707730
  H         1.9807648039        2.0540867424       18.4207352431
  H         6.2978665195        2.0540110487       18.4272649629
  C         4.1387293580        2.0426089623       18.5921470376
  S         4.1387550517        2.0631983097       20.3979529653
 Au        -0.0043471519       -0.0567113901       21.9011967171
 Au        -0.0043570983        4.2024325540       21.9012709324
 Au         1.9432154506        2.0739220058       21.8743278368
 Au         2.0094988722        6.2185835738       21.8987523597
 Au         4.1401629723       -0.1356498700       21.9018019550
 Au         4.1401710182        4.2791436357       21.9014795145
 Au         6.3469561654        2.0739088969       21.8739749037
 Au         6.2190000000        6.2190000000       21.9230000000
 Au         0.0000000000        2.0730000000       23.9960000000
 Au         0.0000000000        6.2190000000       23.9960000000
 Au         2.0730000000        0.0000000000       23.9960000000
 Au         2.0730000000        4.1460000000       23.9960000000
 Au         4.1460000000        2.0730000000       23.9960000000
 Au         4.1460000000        6.2190000000       23.9960000000
 Au         6.2190000000        0.0000000000       23.9960000000
 Au         6.2190000000        4.1460000000       23.9960000000
 Au         0.0000000000        0.0000000000       26.0690000000
 Au         0.0000000000        4.1460000000       26.0690000000
 Au         2.0730000000        2.0730000000       26.0690000000
 Au         2.0730000000        6.2190000000       26.0690000000
 Au         4.1460000000        0.0000000000       26.0690000000
 Au         4.1460000000        4.1460000000       26.0690000000
 Au         6.2190000000        2.0730000000       26.0690000000
 Au         6.2190000000        6.2190000000       26.0690000000
 Au         0.0000000000        2.0730000000       28.1420000000
 Au         0.0000000000        6.2190000000       28.1420000000
 Au         2.0730000000        0.0000000000       28.1420000000
 Au         2.0730000000        4.1460000000       28.1420000000
 Au         4.1460000000        2.0730000000       28.1420000000
 Au         4.1460000000        6.2190000000       28.1420000000
 Au         6.2190000000        0.0000000000       28.1420000000
 Au         6.2190000000        4.1460000000       28.1420000000
 Au         0.0000000000        0.0000000000       30.2150000000
 Au         0.0000000000        4.1460000000       30.2150000000
 Au         2.0730000000        2.0730000000       30.2150000000
 Au         2.0730000000        6.2190000000       30.2150000000
 Au         4.1460000000        0.0000000000       30.2150000000
 Au         4.1460000000        4.1460000000       30.2150000000
 Au         6.2190000000        2.0730000000       30.2150000000
 Au         6.2190000000        6.2190000000       30.2150000000
 Au         0.0000000000        2.0730000000       32.2880000000
 Au         0.0000000000        6.2190000000       32.2880000000
 Au         2.0730000000        0.0000000000       32.2880000000
 Au         2.0730000000        4.1460000000       32.2880000000
 Au         4.1460000000        2.0730000000       32.2880000000
 Au         4.1460000000        6.2190000000       32.2880000000
 Au         6.2190000000        0.0000000000       32.2880000000
 Au         6.2190000000        4.1460000000       32.2880000000
     116
 i =        4, E =     -3518.0917029843
 Au         0.0000000000        0.0000000000        0.0000000000
 Au         0.0000000000        4.1460000000        0.0000000000
 Au         2.0730000000        2.0730000000        0.0000000000
 Au         2.0730000000        6.2190000000        0.0000000000
 Au         4.1460000000        0.0000000000        0.0000000000
 Au         4.1460000000        4.1460000000        0.0000000000
 Au         6.2190000000        2.0730000000        0.0000000000
 Au         6.2190000000        6.2190000000        0.0000000000
 Au         0.0000000000        2.0730000000        2.0730000000
 Au         0.0000000000        6.2190000000        2.0730000000
 Au         2.0730000000        0.0000000000        2.0730000000
 Au         2.0730000000        4.1460000000        2.0730000000
 Au         4.1460000000        2.0730000000        2.0730000000
 Au         4.1460000000        6.2190000000        2.0730000000
 Au         6.2190000000        0.0000000000        2.0730000000
 Au         6.2190000000        4.1460000000        2.0730000000
 Au         0.0000000000        0.0000000000        4.1460000000
 Au         0.0000000000        4.1460000000        4.1460000000
 Au         2.0730000000        2.0730000000        4.1460000000
 Au         2.0730000000        6.2190000000        4.1460000000
 Au         4.1460000000        0.0000000000        4.1460000000
 Au         4.1460000000        4.1460000000        4.1460000000
 Au         6.2190000000        2.0730000000        4.1460000000
 Au         6.2190000000        6.2190000000        4.1460000000
 Au         0.0000000000        2.0730000000        6.2190000000
 Au         0.0000000000        6.2190000000        6.2190000000
 Au         2.0730000000        0.0000000000        6.2190000000
 Au         2.0730000000        4.1460000000        6.2190000000
 Au         4.1460000000        2.0730000000        6.2190000000
 Au         4.1460000000        6.2190000000        6.2190000000
 Au         6.2190000000        0.0000000000        6.2190000000
 Au         6.2190000000        4.1460000000        6.2190000000
 Au         0.0000000000        0.0000000000        8.2920000000
 Au         0.0000000000        4.1460000000        8.2920000000
 Au         2.0730000000        2.0730000000        8.2920000000
 Au         2.0730000000        6.2190000000        8.2920000000
 Au         4.1460000000        0.0000000000        8.2920000000
 Au         4.1460000000        4.1460000000        8.2920000000
 Au         6.2190000000        2.0730000000        8.2920000000
 Au         6.2190000000        6.2190000000        8.2920000000
 Au        -0.0000096514        2.0731450222       10.3658728368
 Au         0.0000005614        6.2189308584       10.3390879789
 Au         2.0813434947        0.0147424445       10.3703997167
 Au         2.0812156603        4.1309260127       10.3703503047
 Au         4.1460005211        2.0728400533       10.3640972194
 Au         4.1459627040        6.2184985039       10.3460424176
 Au         6.2107493274        0.0147652463       10.3704827723
 Au         6.2108797359        4.1309056167       10.3704333137
 Au         0.0000411961       -0.0458699759       12.4572277560
 Au         0.0000422556        4.1920070633       12.4572205267
 Au         1.9420958169        2.0718761172       12.4802971410
 Au         2.0182769378        6.2196161789       12.4549477579
 Au         4.1459888408       -0.1443474619       12.4454667639
 Au         4.1459898607        4.2935688031       12.4452233783
 Au         6.3500759923        2.0718803169       12.4803992213
 Au         6.2736632853        6.2196178530       12.4549064171
  S         4.1459596649        2.0844072598       13.9703949044
  C         4.1432074286        2.0851202052       15.7799991478
  H         1.9813775261        2.0869656702       15.9339802769
  H         6.3054663188        2.0868509031       15.9414966641
  C         2.9214502468        2.0777010296       16.4781668431
  C         5.3633839342        2.0776898844       16.4819901586
  C         2.9185063662        2.0671114981       17.8779958251
  C         5.3616885207        2.0670155918       17.8817695656
  H         1.9770278431        2.0573686904       18.4192701260
  H         6.3012284785        2.0572512764       18.4265799678
  C         4.1392741092        2.0601642754       18.5782565862
  S         4.1393423173        2.0610256316       20.3860293782
 Au        -0.0076412604       -0.0531477487       21.8988499356
 Au        -0.0077080047        4.1990193736       21.8988504628
 Au         1.9371192061        2.0742919250       21.8744448920
 Au         2.0134160813        6.2182951962       21.8950982305
 Au         4.1356046771       -0.1361662471       21.9010695082
 Au         4.1357049860        4.2785117429       21.9005792576
 Au         6.3514855916        2.0742815789       21.8737289690
 Au         6.2190000000        6.2190000000       21.9230000000
 Au         0.0000000000        2.0730000000       23.9960000000
 Au         0.0000000000        6.2190000000       23.9960000000
 Au         2.0730000000        0.0000000000       23.9960000000
 Au         2.0730000000        4.1460000000       23.9960000000
 Au         4.1460000000        2.0730000000       23.9960000000
 Au         4.1460000000        6.2190000000       23.9960000000
 Au         6.2190000000        0.0000000000       23.9960000000
 Au         6.2190000000        4.1460000000       23.9960000000
 Au         0.0000000000        0.0000000000       26.0690000000
 Au         0.0000000000        4.1460000000       26.0690000000
 Au         2.0730000000        2.0730000000       26.0690000000
 Au         2.0730000000        6.2190000000       26.0690000000
 Au         4.1460000000        0.0000000000       26.0690000000
 Au         4.1460000000        4.1460000000       26.0690000000
 Au         6.2190000000        2.0730000000       26.0690000000
 Au         6.2190000000        6.2190000000       26.0690000000
 Au         0.0000000000        2.0730000000       28.1420000000
 Au         0.0000000000        6.2190000000       28.1420000000
 Au         2.0730000000        0.0000000000       28.1420000000
 Au         2.0730000000        4.1460000000       28.1420000000
 Au         4.1460000000        2.0730000000       28.1420000000
 Au         4.1460000000        6.2190000000       28.1420000000
 Au         6.2190000000        0.0000000000       28.1420000000
 Au         6.2190000000        4.1460000000       28.1420000000
 Au         0.0000000000        0.0000000000       30.2150000000
 Au         0.0000000000        4.1460000000       30.2150000000
 Au         2.0730000000        2.0730000000       30.2150000000
 Au         2.0730000000        6.2190000000       30.2150000000
 Au         4.1460000000        0.0000000000       30.2150000000
 Au         4.1460000000        4.1460000000       30.2150000000
 Au         6.2190000000        2.0730000000       30.2150000000
 Au         6.2190000000        6.2190000000       30.2150000000
 Au         0.0000000000        2.0730000000       32.2880000000
 Au         0.0000000000        6.2190000000       32.2880000000