 DBCSR| CPU Multiplication driver                                           XSMM
 DBCSR| Multrec recursion limit                                              512
 DBCSR| Multiplication stack size                                           1000
 DBCSR| Maximum elements for images                                    UNLIMITED
 DBCSR| Multiplicative factor virtual images                                   1
 DBCSR| Use multiplication densification                                       T
 DBCSR| Multiplication size stacks                                             3
 DBCSR| Use memory pool for CPU allocation                                     F
 DBCSR| Number of 3D layers                                               SINGLE
 DBCSR| Use MPI memory allocation                                              F
 DBCSR| Use RMA algorithm                                                      F
 DBCSR| Use Communication thread                                               T
 DBCSR| Communication thread load                                             87
 DBCSR| MPI: My node id                                                        0
 DBCSR| MPI: Number of nodes                                                 240
 DBCSR| OMP: Current number of threads                                         1
 DBCSR| OMP: Max number of threads                                             1
 DBCSR| Split modifier for TAS multiplication algorithm                  1.0E+00


  **** **** ******  **  PROGRAM STARTED AT               2023-02-21 21:51:41.404
 ***** ** ***  *** **   PROGRAM STARTED ON                 cn1057.scarf.rl.ac.uk
 **    ****   ******    PROGRAM STARTED BY                             scarf1157
 ***** **    ** ** **   PROGRAM PROCESS ID                                 50727
  **** **  *******  **  PROGRAM STARTED IN /work4/scd/scarf1157/work/testing/cp2
                                           k-smeagol/bdt/cp2k/hollow-site/transp
                                           ort-cp2k/5-4/geometry-ordered/3x3-4/s
                                           z/bulk_layers-4/geo_opt/Au-S-2.6_dft

 CP2K| version string:                 CP2K version 2022.1 (Development Version)
 CP2K| source code revision number:                                  git:1ef701d
 CP2K| cp2kflags: omp fftw3 libxc parallel mpi3 scalapack xsmm spglib           
 CP2K| is freely available from                            https://www.cp2k.org/
 CP2K| Program compiled at                          Thu 26 Jan 13:39:53 GMT 2023
 CP2K| Program compiled on                                 cn1108.scarf.rl.ac.uk
 CP2K| Program compiled for                                                local
 CP2K| Data directory path    /home/vol07/scarf1157/code/smeagol/cp2k-smeagol/sc
 CP2K| Input file name                                             2_dft_wfn.inp

 GLOBAL| Force Environment number                                              1
 GLOBAL| Basis set file name                                        BASIS_MOLOPT
 GLOBAL| Potential file name                                      GTH_POTENTIALS
 GLOBAL| MM Potential file name                                     MM_POTENTIAL
 GLOBAL| Coordinate file name                                             em.xyz
 GLOBAL| Method name                                                        CP2K
 GLOBAL| Project name                                                    dft_wfn
 GLOBAL| Run type                                                        GEO_OPT
 GLOBAL| FFT library                                                       FFTW3
 GLOBAL| Diagonalization library                                       ScaLAPACK
 GLOBAL| Orthonormality check for eigenvectors                          DISABLED
 GLOBAL| Matrix multiplication library                                 ScaLAPACK
 GLOBAL| All-to-all communication in single precision                          F
 GLOBAL| FFTs using library dependent lengths                                  T
 GLOBAL| Grid backend                                                       AUTO
 GLOBAL| Global print level                                               MEDIUM
 GLOBAL| MPI I/O enabled                                                       T
 GLOBAL| Total number of message passing processes                           240
 GLOBAL| Number of threads for this process                                    1
 GLOBAL| This output is from process                                           0
 GLOBAL| Stack size for threads created by OpenMP (OMP_STACKSIZE)        default
 GLOBAL| CPU model name                         AMD EPYC 7502P 32-Core Processor
 GLOBAL| CPUID                                                              1002

 MEMORY| system memory details [Kb]
 MEMORY|                        rank 0           min           max       average
 MEMORY| MemTotal            263896980     263896980     263896984     263896982
 MEMORY| MemFree             188666684     188666684     225466068     212020405
 MEMORY| Buffers                  2568          2560          3444          2675
 MEMORY| Cached               56425036      22875024      56425036      36075036
 MEMORY| Slab                  1125524        990992       1125524       1033292
 MEMORY| SReclaimable           631648        518452        631648        554018
 MEMORY| MemLikelyFree       245725936     245725936     249246464     248652135


 *** Fundamental physical constants (SI units) ***

 *** Literature: B. J. Mohr and B. N. Taylor,
 ***             CODATA recommended values of the fundamental physical
 ***             constants: 2006, Web Version 5.1
 ***             http://physics.nist.gov/constants

 Speed of light in vacuum [m/s]                             2.99792458000000E+08
 Magnetic constant or permeability of vacuum [N/A**2]       1.25663706143592E-06
 Electric constant or permittivity of vacuum [F/m]          8.85418781762039E-12
 Planck constant (h) [J*s]                                  6.62606896000000E-34
 Planck constant (h-bar) [J*s]                              1.05457162825177E-34
 Elementary charge [C]                                      1.60217648700000E-19
 Electron mass [kg]                                         9.10938215000000E-31
 Electron g factor [ ]                                     -2.00231930436220E+00
 Proton mass [kg]                                           1.67262163700000E-27
 Fine-structure constant                                    7.29735253760000E-03
 Rydberg constant [1/m]                                     1.09737315685270E+07
 Avogadro constant [1/mol]                                  6.02214179000000E+23
 Boltzmann constant [J/K]                                   1.38065040000000E-23
 Atomic mass unit [kg]                                      1.66053878200000E-27
 Bohr radius [m]                                            5.29177208590000E-11

 *** Conversion factors ***

 [u] -> [a.u.]                                              1.82288848426455E+03
 [Angstrom] -> [Bohr] = [a.u.]                              1.88972613288564E+00
 [a.u.] = [Bohr] -> [Angstrom]                              5.29177208590000E-01
 [a.u.] -> [s]                                              2.41888432650478E-17
 [a.u.] -> [fs]                                             2.41888432650478E-02
 [a.u.] -> [J]                                              4.35974393937059E-18
 [a.u.] -> [N]                                              8.23872205491840E-08
 [a.u.] -> [K]                                              3.15774647902944E+05
 [a.u.] -> [kJ/mol]                                         2.62549961709828E+03
 [a.u.] -> [kcal/mol]                                       6.27509468713739E+02
 [a.u.] -> [Pa]                                             2.94210107994716E+13
 [a.u.] -> [bar]                                            2.94210107994716E+08
 [a.u.] -> [atm]                                            2.90362800883016E+08
 [a.u.] -> [eV]                                             2.72113838565563E+01
 [a.u.] -> [Hz]                                             6.57968392072181E+15
 [a.u.] -> [1/cm] (wave numbers)                            2.19474631370540E+05
 [a.u./Bohr**2] -> [1/cm]                                   5.14048714338585E+03
 

 CELL_TOP| Volume [angstrom^3]:                                      2362.568348
 CELL_TOP| Vector a [angstrom     8.292     0.000     0.000   |a| =     8.292000
 CELL_TOP| Vector b [angstrom     0.000     8.292     0.000   |b| =     8.292000
 CELL_TOP| Vector c [angstrom     0.000     0.000    34.361   |c| =    34.361000
 CELL_TOP| Angle (b,c), alpha [degree]:                                90.000000
 CELL_TOP| Angle (a,c), beta  [degree]:                                90.000000
 CELL_TOP| Angle (a,b), gamma [degree]:                                90.000000
 CELL_TOP| Numerically orthorhombic:                                         YES
 CELL_TOP| Periodicity                                                       XYZ

 GENERATE|  Preliminary Number of Bonds generated:                             0
 GENERATE|  Achieved consistency in connectivity generation.

 CELL| Volume [angstrom^3]:                                          2362.568348
 CELL| Vector a [angstrom]:       8.292     0.000     0.000   |a| =     8.292000
 CELL| Vector b [angstrom]:       0.000     8.292     0.000   |b| =     8.292000
 CELL| Vector c [angstrom]:       0.000     0.000    34.361   |c| =    34.361000
 CELL| Angle (b,c), alpha [degree]:                                    90.000000
 CELL| Angle (a,c), beta  [degree]:                                    90.000000
 CELL| Angle (a,b), gamma [degree]:                                    90.000000
 CELL| Numerically orthorhombic:                                             YES
 CELL| Periodicity                                                           XYZ

 CELL_REF| Volume [angstrom^3]:                                      2362.568348
 CELL_REF| Vector a [angstrom     8.292     0.000     0.000   |a| =     8.292000
 CELL_REF| Vector b [angstrom     0.000     8.292     0.000   |b| =     8.292000
 CELL_REF| Vector c [angstrom     0.000     0.000    34.361   |c| =    34.361000
 CELL_REF| Angle (b,c), alpha [degree]:                                90.000000
 CELL_REF| Angle (a,c), beta  [degree]:                                90.000000
 CELL_REF| Angle (a,b), gamma [degree]:                                90.000000
 CELL_REF| Numerically orthorhombic:                                         YES
 CELL_REF| Periodicity                                                       XYZ

 *******************************************************************************
                                    Kpoints
 *******************************************************************************
 BRILLOUIN| K-point scheme                                        Monkhorst-Pack
 BRILLOUIN| K-Point grid                                             2    2    1
 BRILLOUIN| Accuracy in Symmetry determination                      0.100000E-07
 BRILLOUIN| K-Point point group symmetrization                               OFF
 BRILLOUIN| Wavefunction type                                            COMPLEX
 BRILLOUIN| Use full k-point grid     
 BRILLOUIN| List of Kpoints [2 Pi/Bohr]                                        4
 BRILLOUIN| Number           Weight            X              Y              Z
 BRILLOUIN|     1           0.25000       -0.25000       -0.25000        0.00000
 BRILLOUIN|     2           0.25000       -0.25000        0.25000        0.00000
 BRILLOUIN|     3           0.25000        0.25000       -0.25000        0.00000
 BRILLOUIN|     4           0.25000        0.25000        0.25000        0.00000
 *******************************************************************************

 *******************************************************************************
 *******************************************************************************
 **                                                                           **
 **     #####                         ##              ##                      **
 **    ##   ##            ##          ##              ##                      **
 **   ##     ##                       ##            ######                    **
 **   ##     ##  ##   ##  ##   #####  ##  ##   ####   ##    #####    #####    **
 **   ##     ##  ##   ##  ##  ##      ## ##   ##      ##   ##   ##  ##   ##   **
 **   ##  ## ##  ##   ##  ##  ##      ####     ###    ##   ######   ######    **
 **    ##  ###   ##   ##  ##  ##      ## ##      ##   ##   ##       ##        **
 **     #######   #####   ##   #####  ##  ##  ####    ##    #####   ##        **
 **           ##                                                    ##        **
 **                                                                           **
 **                                                ... make the atoms dance   **
 **                                                                           **
 **            Copyright (C) by CP2K developers group (2000-2022)             **
 **                      J. Chem. Phys. 152, 194103 (2020)                    **
 **                                                                           **
 *******************************************************************************

 DFT| Spin restricted Kohn-Sham (RKS) calculation                            RKS
 DFT| Multiplicity                                                             1
 DFT| Number of spin states                                                    1
 DFT| Charge                                                                   0
 DFT| Self-interaction correction (SIC)                                       NO
 DFT| Cutoffs: density                                              1.000000E-10
 DFT|          gradient                                             1.000000E-10
 DFT|          tau                                                  1.000000E-10
 DFT|          cutoff_smoothing_range                               0.000000E+00
 DFT| XC density smoothing                                                  NONE
 DFT| XC derivatives                                                          PW

 FUNCTIONAL| PADE:
 FUNCTIONAL| S. Goedecker, M. Teter and J. Hutter, Phys. Rev. B 54, 1703 (1996) 


 QS| Method:                                                                 GPW
 QS| Density plane wave grid type                        NON-SPHERICAL FULLSPACE
 QS| Number of grid levels:                                                    4
 QS| Density cutoff [a.u.]:                                                200.0
 QS| Multi grid cutoff [a.u.]: 1) grid level                               200.0
 QS|                           2) grid level                                66.7
 QS|                           3) grid level                                22.2
 QS|                           4) grid level                                 7.4
 QS| Grid level progression factor:                                          3.0
 QS| Relative density cutoff [a.u.]:                                        20.0
 QS| Interaction thresholds: eps_pgf_orb:                                1.0E-05
 QS|                         eps_filter_matrix:                          0.0E+00
 QS|                         eps_core_charge:                            1.0E-12
 QS|                         eps_rho_gspace:                             1.0E-10
 QS|                         eps_rho_rspace:                             1.0E-10
 QS|                         eps_gvg_rspace:                             1.0E-05
 QS|                         eps_ppl:                                    1.0E-02
 QS|                         eps_ppnl:                                   1.0E-07


 ATOMIC KIND INFORMATION

  1. Atomic kind: Au                                    Number of atoms:     104

     Orbital Basis Set                                         SZV-MOLOPT-SR-GTH

       Number of orbital shell sets:                                           1
       Number of orbital shells:                                               3
       Number of primitive Cartesian functions:                                5
       Number of Cartesian basis functions:                                   10
       Number of spherical basis functions:                                    9
       Norm type:                                                              2

       Normalised Cartesian orbitals:

                        Set   Shell   Orbital            Exponent    Coefficient

                          1       1    2s                2.950008       0.074626
                                                         1.563057      -0.007898
                                                         0.666664      -0.297688
                                                         0.251083       0.136809
                                                         0.081714       0.088198

                          1       2    3px               2.950008       0.148824
                                                         1.563057       0.025430
                                                         0.666664      -0.123003
                                                         0.251083       0.033648
                                                         0.081714       0.059008
                          1       2    3py               2.950008       0.148824
                                                         1.563057       0.025430
                                                         0.666664      -0.123003
                                                         0.251083       0.033648
                                                         0.081714       0.059008
                          1       2    3pz               2.950008       0.148824
                                                         1.563057       0.025430
                                                         0.666664      -0.123003
                                                         0.251083       0.033648
                                                         0.081714       0.059008

                          1       3    4dx2              2.950008      -0.139595
                                                         1.563057       1.319655
                                                         0.666664       0.377081
                                                         0.251083       0.046872
                                                         0.081714       0.001393
                          1       3    4dxy              2.950008      -0.241786
                                                         1.563057       2.285709
                                                         0.666664       0.653124
                                                         0.251083       0.081185
                                                         0.081714       0.002412
                          1       3    4dxz              2.950008      -0.241786
                                                         1.563057       2.285709
                                                         0.666664       0.653124
                                                         0.251083       0.081185
                                                         0.081714       0.002412
                          1       3    4dy2              2.950008      -0.139595
                                                         1.563057       1.319655
                                                         0.666664       0.377081
                                                         0.251083       0.046872
                                                         0.081714       0.001393
                          1       3    4dyz              2.950008      -0.241786
                                                         1.563057       2.285709
                                                         0.666664       0.653124
                                                         0.251083       0.081185
                                                         0.081714       0.002412
                          1       3    4dz2              2.950008      -0.139595
                                                         1.563057       1.319655
                                                         0.666664       0.377081
                                                         0.251083       0.046872
                                                         0.081714       0.001393

       Atomic covalent radius [Angstrom]:                                  1.340

       Atomic van der Waals radius [Angstrom]:                             1.660

     GTH Potential information for                                  GTH-PADE-q11

       Description:                       Goedecker-Teter-Hutter pseudopotential
                                           Goedecker et al., PRB 54, 1703 (1996)
                                          Hartwigsen et al., PRB 58, 3641 (1998)
                                                      Krack, TCA 114, 145 (2005)

       Gaussian exponent of the core charge distribution:               1.436369
       Electronic configuration (s p d ...):                           1   0  10

       Parameters of the local part of the GTH pseudopotential:

                          rloc        C1          C2          C3          C4
                        0.590000   11.604428

       Parameters of the non-local part of the GTH pseudopotential:

                   l      r(l)      h(i,j,l)

                   0    0.521180    2.538614   -1.046137
                                   -1.046137    2.701113
                   1    0.630613    0.394853   -0.869592
                                   -0.869592    2.057831
                   2    0.440706   -4.719070    0.727771
                                    0.727771   -1.650429

  2. Atomic kind: S                                     Number of atoms:       2

     Orbital Basis Set                                         SZV-MOLOPT-SR-GTH

       Number of orbital shell sets:                                           1
       Number of orbital shells:                                               2
       Number of primitive Cartesian functions:                                4
       Number of Cartesian basis functions:                                    4
       Number of spherical basis functions:                                    4
       Norm type:                                                              2

       Normalised Cartesian orbitals:

                        Set   Shell   Orbital            Exponent    Coefficient

                          1       1    2s                2.215855       0.308496
                                                         1.131471       0.138505
                                                         0.410168      -0.373736
                                                         0.140587      -0.040370

                          1       2    3px               2.215855       0.420434
                                                         1.131471      -0.319283
                                                         0.410168      -0.335323
                                                         0.140587      -0.030976
                          1       2    3py               2.215855       0.420434
                                                         1.131471      -0.319283
                                                         0.410168      -0.335323
                                                         0.140587      -0.030976
                          1       2    3pz               2.215855       0.420434
                                                         1.131471      -0.319283
                                                         0.410168      -0.335323
                                                         0.140587      -0.030976

       Atomic covalent radius [Angstrom]:                                  1.020

       Atomic van der Waals radius [Angstrom]:                             1.800

     GTH Potential information for                                   GTH-PADE-q6

       Description:                       Goedecker-Teter-Hutter pseudopotential
                                           Goedecker et al., PRB 54, 1703 (1996)
                                          Hartwigsen et al., PRB 58, 3641 (1998)
                                                      Krack, TCA 114, 145 (2005)

       Gaussian exponent of the core charge distribution:               2.834467
       Electronic configuration (s p d ...):                               2   4

       Parameters of the local part of the GTH pseudopotential:

                          rloc        C1          C2          C3          C4
                        0.420000   -6.554492

       Parameters of the non-local part of the GTH pseudopotential:

                   l      r(l)      h(i,j,l)

                   0    0.361757    7.905303   -1.731881
                                   -1.731881    4.471698
                   1    0.405285    3.866579

  3. Atomic kind: C                                     Number of atoms:       6

     Orbital Basis Set                                         SZV-MOLOPT-SR-GTH

       Number of orbital shell sets:                                           1
       Number of orbital shells:                                               2
       Number of primitive Cartesian functions:                                5
       Number of Cartesian basis functions:                                    4
       Number of spherical basis functions:                                    4
       Norm type:                                                              2

       Normalised Cartesian orbitals:

                        Set   Shell   Orbital            Exponent    Coefficient

                          1       1    2s                5.605331       0.322515
                                                         2.113016       0.213043
                                                         0.769911      -0.209686
                                                         0.348157      -0.219794
                                                         0.128212      -0.022789

                          1       2    3px               5.605331      -0.703879
                                                         2.113016      -0.642521
                                                         0.769911      -0.374851
                                                         0.348157      -0.139743
                                                         0.128212      -0.027849
                          1       2    3py               5.605331      -0.703879
                                                         2.113016      -0.642521
                                                         0.769911      -0.374851
                                                         0.348157      -0.139743
                                                         0.128212      -0.027849
                          1       2    3pz               5.605331      -0.703879
                                                         2.113016      -0.642521
                                                         0.769911      -0.374851
                                                         0.348157      -0.139743
                                                         0.128212      -0.027849

       Atomic covalent radius [Angstrom]:                                  0.770

       Atomic van der Waals radius [Angstrom]:                             1.700

     GTH Potential information for                                   GTH-PADE-q4

       Description:                       Goedecker-Teter-Hutter pseudopotential
                                           Goedecker et al., PRB 54, 1703 (1996)
                                          Hartwigsen et al., PRB 58, 3641 (1998)
                                                      Krack, TCA 114, 145 (2005)

       Gaussian exponent of the core charge distribution:               4.109048
       Electronic configuration (s p d ...):                               2   2

       Parameters of the local part of the GTH pseudopotential:

                          rloc        C1          C2          C3          C4
                        0.348830   -8.513771    1.228432

       Parameters of the non-local part of the GTH pseudopotential:

                   l      r(l)      h(i,j,l)

                   0    0.304553    9.522842
                   1    0.232677

  4. Atomic kind: H                                     Number of atoms:       4

     Orbital Basis Set                                         SZV-MOLOPT-SR-GTH

       Number of orbital shell sets:                                           1
       Number of orbital shells:                                               1
       Number of primitive Cartesian functions:                                5
       Number of Cartesian basis functions:                                    1
       Number of spherical basis functions:                                    1
       Norm type:                                                              2

       Normalised Cartesian orbitals:

                        Set   Shell   Orbital            Exponent    Coefficient

                          1       1    2s               10.068468      -0.133023
                                                         2.680223      -0.177618
                                                         0.791502      -0.258419
                                                         0.239116      -0.107525
                                                         0.082193      -0.014019

       Atomic covalent radius [Angstrom]:                                  0.320

       Atomic van der Waals radius [Angstrom]:                             1.090

     GTH Potential information for                                   GTH-PADE-q1

       Description:                       Goedecker-Teter-Hutter pseudopotential
                                           Goedecker et al., PRB 54, 1703 (1996)
                                          Hartwigsen et al., PRB 58, 3641 (1998)
                                                      Krack, TCA 114, 145 (2005)

       Gaussian exponent of the core charge distribution:              12.500000
       Electronic configuration (s p d ...):                                   1

       Parameters of the local part of the GTH pseudopotential:

                          rloc        C1          C2          C3          C4
                        0.200000   -4.180237    0.725075


 MOLECULE KIND INFORMATION


 All atoms are their own molecule, skipping detailed information


 TOTAL NUMBERS AND MAXIMUM NUMBERS

  Total number of            - Atomic kinds:                                   4
                             - Atoms:                                        116
                             - Shell sets:                                   116
                             - Shells:                                       332
                             - Primitive Cartesian functions:                578
                             - Cartesian basis functions:                   1076
                             - Spherical basis functions:                    972

  Maximum angular momentum of- Orbital basis functions:                        2
                             - Local part of the GTH pseudopotential:          2
                             - Non-local part of the GTH pseudopotential:      4


 MODULE QUICKSTEP: ATOMIC COORDINATES IN ANGSTROM

   Atom Kind Element         X             Y             Z       Z(eff)     Mass
      1    1 Au   79      0.000000      0.000000      0.000000  11.0000 196.9666
      2    1 Au   79      0.000000      4.146000      0.000000  11.0000 196.9666
      3    1 Au   79      2.073000      2.073000      0.000000  11.0000 196.9666
      4    1 Au   79      2.073000      6.219000      0.000000  11.0000 196.9666
      5    1 Au   79      4.146000      0.000000      0.000000  11.0000 196.9666
      6    1 Au   79      4.146000      4.146000      0.000000  11.0000 196.9666
      7    1 Au   79      6.219000      2.073000      0.000000  11.0000 196.9666
      8    1 Au   79      6.219000      6.219000      0.000000  11.0000 196.9666
      9    1 Au   79      0.000000      2.073000      2.073000  11.0000 196.9666
     10    1 Au   79      0.000000      6.219000      2.073000  11.0000 196.9666
     11    1 Au   79      2.073000      0.000000      2.073000  11.0000 196.9666
     12    1 Au   79      2.073000      4.146000      2.073000  11.0000 196.9666
     13    1 Au   79      4.146000      2.073000      2.073000  11.0000 196.9666
     14    1 Au   79      4.146000      6.219000      2.073000  11.0000 196.9666
     15    1 Au   79      6.219000      0.000000      2.073000  11.0000 196.9666
     16    1 Au   79      6.219000      4.146000      2.073000  11.0000 196.9666
     17    1 Au   79      0.000000      0.000000      4.146000  11.0000 196.9666
     18    1 Au   79      0.000000      4.146000      4.146000  11.0000 196.9666
     19    1 Au   79      2.073000      2.073000      4.146000  11.0000 196.9666
     20    1 Au   79      2.073000      6.219000      4.146000  11.0000 196.9666
     21    1 Au   79      4.146000      0.000000      4.146000  11.0000 196.9666
     22    1 Au   79      4.146000      4.146000      4.146000  11.0000 196.9666
     23    1 Au   79      6.219000      2.073000      4.146000  11.0000 196.9666
     24    1 Au   79      6.219000      6.219000      4.146000  11.0000 196.9666
     25    1 Au   79      0.000000      2.073000      6.219000  11.0000 196.9666
     26    1 Au   79      0.000000      6.219000      6.219000  11.0000 196.9666
     27    1 Au   79      2.073000      0.000000      6.219000  11.0000 196.9666
     28    1 Au   79      2.073000      4.146000      6.219000  11.0000 196.9666
     29    1 Au   79      4.146000      2.073000      6.219000  11.0000 196.9666
     30    1 Au   79      4.146000      6.219000      6.219000  11.0000 196.9666
     31    1 Au   79      6.219000      0.000000      6.219000  11.0000 196.9666
     32    1 Au   79      6.219000      4.146000      6.219000  11.0000 196.9666
     33    1 Au   79      0.000000      0.000000      8.292000  11.0000 196.9666
     34    1 Au   79      0.000000      4.146000      8.292000  11.0000 196.9666
     35    1 Au   79      2.073000      2.073000      8.292000  11.0000 196.9666
     36    1 Au   79      2.073000      6.219000      8.292000  11.0000 196.9666
     37    1 Au   79      4.146000      0.000000      8.292000  11.0000 196.9666
     38    1 Au   79      4.146000      4.146000      8.292000  11.0000 196.9666
     39    1 Au   79      6.219000      2.073000      8.292000  11.0000 196.9666
     40    1 Au   79      6.219000      6.219000      8.292000  11.0000 196.9666
     41    1 Au   79      0.000000      2.073000     10.365000  11.0000 196.9666
     42    1 Au   79      0.000000      6.219000     10.365000  11.0000 196.9666
     43    1 Au   79      2.073000      0.000000     10.365000  11.0000 196.9666
     44    1 Au   79      2.073000      4.146000     10.365000  11.0000 196.9666
     45    1 Au   79      4.146000      2.073000     10.365000  11.0000 196.9666
     46    1 Au   79      4.146000      6.219000     10.365000  11.0000 196.9666
     47    1 Au   79      6.219000      0.000000     10.365000  11.0000 196.9666
     48    1 Au   79      6.219000      4.146000     10.365000  11.0000 196.9666
     49    1 Au   79      0.000000      0.000000     12.438000  11.0000 196.9666
     50    1 Au   79      0.000000      4.146000     12.438000  11.0000 196.9666
     51    1 Au   79      2.073000      2.073000     12.438000  11.0000 196.9666
     52    1 Au   79      2.073000      6.219000     12.438000  11.0000 196.9666
     53    1 Au   79      4.146000      0.000000     12.438000  11.0000 196.9666
     54    1 Au   79      4.146000      4.146000     12.438000  11.0000 196.9666
     55    1 Au   79      6.219000      2.073000     12.438000  11.0000 196.9666
     56    1 Au   79      6.219000      6.219000     12.438000  11.0000 196.9666
     57    2 S    16      4.146000      2.073000     14.007000   6.0000  32.0650
     58    3 C     6      4.149000      2.077000     15.769000   4.0000  12.0107
     59    4 H     1      2.047000      2.103000     15.952000   1.0000   1.0079
     60    4 H     1      6.244000      2.103000     15.958000   1.0000   1.0079
     61    3 C     6      2.940000      2.083000     16.469000   4.0000  12.0107
     62    3 C     6      5.348000      2.083000     16.469000   4.0000  12.0107
     63    3 C     6      2.933000      2.061000     17.892000   4.0000  12.0107
     64    3 C     6      5.341000      2.061000     17.892000   4.0000  12.0107
     65    4 H     1      2.037000      2.041000     18.403000   1.0000   1.0079
     66    4 H     1      6.234000      2.041000     18.409000   1.0000   1.0079
     67    3 C     6      4.132000      2.067000     18.593000   4.0000  12.0107
     68    2 S    16      4.146000      2.073000     20.354000   6.0000  32.0650
     69    1 Au   79      0.000000      0.000000     21.923000  11.0000 196.9666
     70    1 Au   79      0.000000      4.146000     21.923000  11.0000 196.9666
     71    1 Au   79      2.073000      2.073000     21.923000  11.0000 196.9666
     72    1 Au   79      2.073000      6.219000     21.923000  11.0000 196.9666
     73    1 Au   79      4.146000      0.000000     21.923000  11.0000 196.9666
     74    1 Au   79      4.146000      4.146000     21.923000  11.0000 196.9666
     75    1 Au   79      6.219000      2.073000     21.923000  11.0000 196.9666
     76    1 Au   79      6.219000      6.219000     21.923000  11.0000 196.9666
     77    1 Au   79      0.000000      2.073000     23.996000  11.0000 196.9666
     78    1 Au   79      0.000000      6.219000     23.996000  11.0000 196.9666
     79    1 Au   79      2.073000      0.000000     23.996000  11.0000 196.9666
     80    1 Au   79      2.073000      4.146000     23.996000  11.0000 196.9666
     81    1 Au   79      4.146000      2.073000     23.996000  11.0000 196.9666
     82    1 Au   79      4.146000      6.219000     23.996000  11.0000 196.9666
     83    1 Au   79      6.219000      0.000000     23.996000  11.0000 196.9666
     84    1 Au   79      6.219000      4.146000     23.996000  11.0000 196.9666
     85    1 Au   79      0.000000      0.000000     26.069000  11.0000 196.9666
     86    1 Au   79      0.000000      4.146000     26.069000  11.0000 196.9666
     87    1 Au   79      2.073000      2.073000     26.069000  11.0000 196.9666
     88    1 Au   79      2.073000      6.219000     26.069000  11.0000 196.9666
     89    1 Au   79      4.146000      0.000000     26.069000  11.0000 196.9666
     90    1 Au   79      4.146000      4.146000     26.069000  11.0000 196.9666
     91    1 Au   79      6.219000      2.073000     26.069000  11.0000 196.9666
     92    1 Au   79      6.219000      6.219000     26.069000  11.0000 196.9666
     93    1 Au   79      0.000000      2.073000     28.142000  11.0000 196.9666
     94    1 Au   79      0.000000      6.219000     28.142000  11.0000 196.9666
     95    1 Au   79      2.073000      0.000000     28.142000  11.0000 196.9666
     96    1 Au   79      2.073000      4.146000     28.142000  11.0000 196.9666
     97    1 Au   79      4.146000      2.073000     28.142000  11.0000 196.9666
     98    1 Au   79      4.146000      6.219000     28.142000  11.0000 196.9666
     99    1 Au   79      6.219000      0.000000     28.142000  11.0000 196.9666
    100    1 Au   79      6.219000      4.146000     28.142000  11.0000 196.9666
    101    1 Au   79      0.000000      0.000000     30.215000  11.0000 196.9666
    102    1 Au   79      0.000000      4.146000     30.215000  11.0000 196.9666
    103    1 Au   79      2.073000      2.073000     30.215000  11.0000 196.9666
    104    1 Au   79      2.073000      6.219000     30.215000  11.0000 196.9666
    105    1 Au   79      4.146000      0.000000     30.215000  11.0000 196.9666
    106    1 Au   79      4.146000      4.146000     30.215000  11.0000 196.9666
    107    1 Au   79      6.219000      2.073000     30.215000  11.0000 196.9666
    108    1 Au   79      6.219000      6.219000     30.215000  11.0000 196.9666
    109    1 Au   79      0.000000      2.073000     32.288000  11.0000 196.9666
    110    1 Au   79      0.000000      6.219000     32.288000  11.0000 196.9666
    111    1 Au   79      2.073000      0.000000     32.288000  11.0000 196.9666
    112    1 Au   79      2.073000      4.146000     32.288000  11.0000 196.9666
    113    1 Au   79      4.146000      2.073000     32.288000  11.0000 196.9666
    114    1 Au   79      4.146000      6.219000     32.288000  11.0000 196.9666
    115    1 Au   79      6.219000      0.000000     32.288000  11.0000 196.9666
    116    1 Au   79      6.219000      4.146000     32.288000  11.0000 196.9666



 SCF PARAMETERS         Density guess:                                    ATOMIC
                        --------------------------------------------------------
                        max_scf:                                             100
                        max_scf_history:                                       0
                        max_diis:                                              4
                        --------------------------------------------------------
                        eps_scf:                                        1.00E-07
                        eps_scf_history:                                0.00E+00
                        eps_diis:                                       1.00E-01
                        eps_eigval:                                     1.00E-05
                        --------------------------------------------------------
                        level_shift [a.u.]:                             0.000000
                        added MOs                                       100    0
                        --------------------------------------------------------
                        Mixing method:                            BROYDEN_MIXING
                                                charge density mixing in g-space
                        --------------------------------------------------------
                        Smear method:                                FERMI_DIRAC
                        Electronic temperature [K]:                        293.0
                        Electronic temperature [a.u.]:                  9.28E-04
                        Accuracy threshold:                             1.00E-10
                        --------------------------------------------------------
                        No outer SCF

 PW_GRID| Information for grid number                                          1
 PW_GRID| Grid distributed over                                   240 processors
 PW_GRID| Real space group dimensions                                    12   20
 PW_GRID| the grid is blocked:                                               YES
 PW_GRID| Cutoff [a.u.]                                                    200.0
 PW_GRID| spherical cutoff:                                                   NO
 PW_GRID|   Bounds   1            -49      49                Points:          99
 PW_GRID|   Bounds   2            -49      49                Points:          99
 PW_GRID|   Bounds   3           -210     209                Points:         420
 PW_GRID| Volume element (a.u.^3)  0.3873E-02     Volume (a.u.^3)     15943.4017
 PW_GRID| Grid span                                                    FULLSPACE
 PW_GRID|   Distribution                         Average         Max         Min
 PW_GRID|   G-Vectors                            17151.8       18711       16632
 PW_GRID|   G-Rays                                 173.2         189         168
 PW_GRID|   Real Space Points                    17151.8       18711       16632

 PW_GRID| Information for grid number                                          2
 PW_GRID| Number of the reference grid                                         1
 PW_GRID| Grid distributed over                                   240 processors
 PW_GRID| Real space group dimensions                                    12   20
 PW_GRID| the grid is blocked:                                                NO
 PW_GRID| Cutoff [a.u.]                                                     66.7
 PW_GRID| spherical cutoff:                                                   NO
 PW_GRID|   Bounds   1            -30      29                Points:          60
 PW_GRID|   Bounds   2            -30      29                Points:          60
 PW_GRID|   Bounds   3           -120     119                Points:         240
 PW_GRID| Volume element (a.u.^3)  0.1845E-01     Volume (a.u.^3)     15943.4017
 PW_GRID| Grid span                                                    FULLSPACE
 PW_GRID|   Distribution                         Average         Max         Min
 PW_GRID|   G-Vectors                             3600.0       11340           0
 PW_GRID|   G-Rays                                  60.0         189           0
 PW_GRID|   Real Space Points                     3600.0        3600        3600

 PW_GRID| Information for grid number                                          3
 PW_GRID| Number of the reference grid                                         1
 PW_GRID| Grid distributed over                                   240 processors
 PW_GRID| Real space group dimensions                                    12   20
 PW_GRID| the grid is blocked:                                                NO
 PW_GRID| Cutoff [a.u.]                                                     22.2
 PW_GRID| spherical cutoff:                                                   NO
 PW_GRID|   Bounds   1            -16      16                Points:          33
 PW_GRID|   Bounds   2            -16      16                Points:          33
 PW_GRID|   Bounds   3            -70      69                Points:         140
 PW_GRID| Volume element (a.u.^3)  0.1046         Volume (a.u.^3)     15943.4017
 PW_GRID| Grid span                                                    FULLSPACE
 PW_GRID|   Distribution                         Average         Max         Min
 PW_GRID|   G-Vectors                              635.2        6237           0
 PW_GRID|   G-Rays                                  19.2         189           0
 PW_GRID|   Real Space Points                      635.2         840         280

 PW_GRID| Information for grid number                                          4
 PW_GRID| Number of the reference grid                                         1
 PW_GRID| Grid distributed over                                   240 processors
 PW_GRID| Real space group dimensions                                    12   20
 PW_GRID| the grid is blocked:                                                NO
 PW_GRID| Cutoff [a.u.]                                                      7.4
 PW_GRID| spherical cutoff:                                                   NO
 PW_GRID|   Bounds   1            -10       9                Points:          20
 PW_GRID|   Bounds   2            -10       9                Points:          20
 PW_GRID|   Bounds   3            -40      39                Points:          80
 PW_GRID| Volume element (a.u.^3)  0.4982         Volume (a.u.^3)     15943.4017
 PW_GRID| Grid span                                                    FULLSPACE
 PW_GRID|   Distribution                         Average         Max         Min
 PW_GRID|   G-Vectors                              133.3        3360           0
 PW_GRID|   G-Rays                                   6.7         168           0
 PW_GRID|   Real Space Points                      133.3         160          80

 POISSON| Solver                                                        PERIODIC
 POISSON| Periodicity                                                        XYZ

 RS_GRID| Information for grid number                                          1
 RS_GRID|   Bounds   1            -49      49                Points:          99
 RS_GRID|   Bounds   2            -49      49                Points:          99
 RS_GRID|   Bounds   3           -210     209                Points:         420
 RS_GRID| Real space distribution over                                  8 groups
 RS_GRID| Real space distribution along direction                              2
 RS_GRID| Border size                                                         29
 RS_GRID| Real space distribution over                                 30 groups
 RS_GRID| Real space distribution along direction                              3
 RS_GRID| Border size                                                         29
 RS_GRID|   Distribution                         Average         Max         Min
 RS_GRID|   Planes                                  70.4          71          70
 RS_GRID|   Distribution                         Average         Max         Min
 RS_GRID|   Planes                                  72.0          72          72

 RS_GRID| Information for grid number                                          2
 RS_GRID|   Bounds   1            -30      29                Points:          60
 RS_GRID|   Bounds   2            -30      29                Points:          60
 RS_GRID|   Bounds   3           -120     119                Points:         240
 RS_GRID| Real space distribution over                                  8 groups
 RS_GRID| Real space distribution along direction                              2
 RS_GRID| Border size                                                         21
 RS_GRID| Real space distribution over                                 30 groups
 RS_GRID| Real space distribution along direction                              3
 RS_GRID| Border size                                                         21
 RS_GRID|   Distribution                         Average         Max         Min
 RS_GRID|   Planes                                  49.5          50          49
 RS_GRID|   Distribution                         Average         Max         Min
 RS_GRID|   Planes                                  50.0          50          50

 RS_GRID| Information for grid number                                          3
 RS_GRID|   Bounds   1            -16      16                Points:          33
 RS_GRID|   Bounds   2            -16      16                Points:          33
 RS_GRID|   Bounds   3            -70      69                Points:         140
 RS_GRID| Real space fully replicated
 RS_GRID| Group size                                                           1

 RS_GRID| Information for grid number                                          4
 RS_GRID|   Bounds   1            -10       9                Points:          20
 RS_GRID|   Bounds   2            -10       9                Points:          20
 RS_GRID|   Bounds   3            -40      39                Points:          80
 RS_GRID| Real space fully replicated
 RS_GRID| Group size                                                           1

 KPOINTS| Number of kpoint groups                                              1
 KPOINTS| Size of each kpoint group                                          240
 KPOINTS| Number of kpoints per group                                          4

 BFGS| Use rational function optimization for step estimation:                NO
 BFGS| Use model Hessian for initial guess:                                  YES
 BFGS| Restart Hessian:                                                       NO
 BFGS| Trust radius:                                                       0.472

 *******************************************************************************
 ***                     STARTING GEOMETRY OPTIMIZATION                      ***
 ***                                   BFGS                                  ***
 *******************************************************************************

 Number of electrons:                                                       1184
 Number of occupied orbitals:                                                592
 Number of molecular orbitals:                                               692

 Number of orbital functions:                                                972
 Number of independent orbital functions:                                    972

 Extrapolation method: initial_guess

 Atomic guess: The first density matrix is obtained in terms of atomic orbitals
               and electronic configurations assigned to each atomic kind

 Guess for atomic kind: Au

 Electronic structure
    Total number of core electrons                                         68.00
    Total number of valence electrons                                      11.00
    Total number of electrons                                              79.00
    Multiplicity                                                   not specified
    S   [  2.00  2.00  2.00  2.00  2.00] 1.00
    P   [  6.00  6.00  6.00  6.00]
    D   [ 10.00 10.00]10.00
    F   [ 14.00]


 *******************************************************************************
                  Iteration          Convergence                     Energy [au]
 *******************************************************************************
                          1         0.00000                     -33.033218197848

 Energy components [Hartree]           Total Energy ::          -33.033218197848
                                        Band Energy ::           -1.147505983145
                                     Kinetic Energy ::           24.744064437587
                                   Potential Energy ::          -57.777282635435
                                      Virial (-V/T) ::            2.334995642336
                                        Core Energy ::          -60.197309615488
                                          XC Energy ::           -5.116883226844
                                     Coulomb Energy ::           32.280974644483
                       Total Pseudopotential Energy ::          -85.042885173964
                       Local Pseudopotential Energy ::          -66.341694915099
                    Nonlocal Pseudopotential Energy ::          -18.701190258865
                                        Confinement ::            1.015111208892

 Orbital energies  State     L     Occupation   Energy[a.u.]          Energy[eV]

                       1     0          1.000      -0.213792           -5.817572

                       1     2         10.000      -0.093371           -2.540765


 Total Electron Density at R=0:                                         0.000035

 Guess for atomic kind: S

 Electronic structure
    Total number of core electrons                                         10.00
    Total number of valence electrons                                       6.00
    Total number of electrons                                              16.00
    Multiplicity                                                   not specified
    S   [  2.00  2.00] 2.00
    P   [  6.00] 4.00


 *******************************************************************************
                  Iteration          Convergence                     Energy [au]
 *******************************************************************************
                          1         0.00000                      -9.853460757856

 Energy components [Hartree]           Total Energy ::           -9.853460757856
                                        Band Energy ::           -2.356337656970
                                     Kinetic Energy ::            4.823553161963
                                   Potential Energy ::          -14.677013919818
                                      Virial (-V/T) ::            3.042780586634
                                        Core Energy ::          -17.027141804256
                                          XC Energy ::           -2.306120006027
                                     Coulomb Energy ::            9.479801052427
                       Total Pseudopotential Energy ::          -21.894561428820
                       Local Pseudopotential Energy ::          -24.454849976053
                    Nonlocal Pseudopotential Energy ::            2.560288547233
                                        Confinement ::            0.438664626013

 Orbital energies  State     L     Occupation   Energy[a.u.]          Energy[eV]

                       1     0          2.000      -0.651558          -17.729806

                       1     1          4.000      -0.263305           -7.164899


 Total Electron Density at R=0:                                         0.002164

 Guess for atomic kind: C

 Electronic structure
    Total number of core electrons                                          2.00
    Total number of valence electrons                                       4.00
    Total number of electrons                                               6.00
    Multiplicity                                                   not specified
    S   [  2.00] 2.00
    P      2.00


 *******************************************************************************
                  Iteration          Convergence                     Energy [au]
 *******************************************************************************
                          1         0.00000                      -5.203769106903

 Energy components [Hartree]           Total Energy ::           -5.203769106903
                                        Band Energy ::           -1.102062531975
                                     Kinetic Energy ::            4.436946353555
                                   Potential Energy ::           -9.640715460459
                                      Virial (-V/T) ::            2.172826690306
                                        Core Energy ::           -8.622900759898
                                          XC Energy ::           -1.549179882233
                                     Coulomb Energy ::            4.968311535227
                       Total Pseudopotential Energy ::          -13.085360153352
                       Local Pseudopotential Energy ::          -13.648615018058
                    Nonlocal Pseudopotential Energy ::            0.563254864706
                                        Confinement ::            0.255130398990

 Orbital energies  State     L     Occupation   Energy[a.u.]          Energy[eV]

                       1     0          2.000      -0.416370          -11.330000

                       1     1          2.000      -0.134661           -3.664323


 Total Electron Density at R=0:                                         0.013874

 Guess for atomic kind: H

 Electronic structure
    Total number of core electrons                                          0.00
    Total number of valence electrons                                       1.00
    Total number of electrons                                               1.00
    Multiplicity                                                   not specified
    S      1.00


 *******************************************************************************
                  Iteration          Convergence                     Energy [au]
 *******************************************************************************
                          1         0.00000                      -0.372474116344

 Energy components [Hartree]           Total Energy ::           -0.372474116344
                                        Band Energy ::           -0.184689713228
                                     Kinetic Energy ::            0.795946116619
                                   Potential Energy ::           -1.168420232963
                                      Virial (-V/T) ::            1.467963984706
                                        Core Energy ::           -0.452545141516
                                          XC Energy ::           -0.314416247311
                                     Coulomb Energy ::            0.394487272483
                       Total Pseudopotential Energy ::           -1.259976600556
                       Local Pseudopotential Energy ::           -1.259976600556
                    Nonlocal Pseudopotential Energy ::            0.000000000000
                                        Confinement ::            0.114853424211

 Orbital energies  State     L     Occupation   Energy[a.u.]          Energy[eV]

                       1     0          1.000      -0.184690           -5.025663


 Total Electron Density at R=0:                                         0.476934
 Re-scaling the density matrix to get the right number of electrons
                  # Electrons              Trace(P)               Scaling factor
                         1184              1184.000                        1.000


 SCF WAVEFUNCTION OPTIMIZATION

  Step     Update method      Time    Convergence         Total energy    Change
  ------------------------------------------------------------------------------
     1 NoMix/Diag. 0.30E+00    1.1     1.34453773     -3518.1346778225 -3.52E+03
     2 Broy./Diag. 0.30E+00    1.2     0.65719371     -3597.7545301929 -7.96E+01
     3 Broy./Diag. 0.30E+00    1.1     0.12185905     -3554.4502361346  4.33E+01
     4 Broy./Diag. 0.30E+00    1.1     0.16224852     -3531.5922676741  2.29E+01
     5 Broy./Diag. 0.30E+00    1.2     0.03104599     -3521.9348991845  9.66E+00
     6 Broy./Diag. 0.30E+00    1.1     0.01425411     -3518.3386774091  3.60E+00
     7 Broy./Diag. 0.30E+00    1.1     0.00367551     -3518.0897752056  2.49E-01
     8 Broy./Diag. 0.30E+00    1.1     0.00433616     -3518.0574057034  3.24E-02
     9 Broy./Diag. 0.30E+00    1.2     0.00361724     -3518.0800934716 -2.27E-02
    10 Broy./Diag. 0.30E+00    1.2     0.00086959     -3518.1067603497 -2.67E-02
    11 Broy./Diag. 0.30E+00    1.0     0.00066278     -3518.1058746562  8.86E-04
    12 Broy./Diag. 0.30E+00    1.1     0.00070774     -3518.0852697395  2.06E-02
    13 Broy./Diag. 0.30E+00    1.0     0.00035279     -3518.0675794901  1.77E-02
    14 Broy./Diag. 0.30E+00    1.0     0.00022839     -3518.0600069130  7.57E-03
    15 Broy./Diag. 0.30E+00    1.1     0.00017215     -3518.0578540277  2.15E-03
    16 Broy./Diag. 0.30E+00    1.1     0.00011075     -3518.0573282930  5.26E-04
    17 Broy./Diag. 0.30E+00    1.1     0.00004520     -3518.0567295924  5.99E-04
    18 Broy./Diag. 0.30E+00    1.0     0.00002737     -3518.0566586583  7.09E-05
    19 Broy./Diag. 0.30E+00    1.0     0.00001816     -3518.0567018092 -4.32E-05
    20 Broy./Diag. 0.30E+00    1.0     0.00001257     -3518.0566515588  5.03E-05
    21 Broy./Diag. 0.30E+00    1.1     0.00000548     -3518.0565566774  9.49E-05
    22 Broy./Diag. 0.30E+00    1.0     0.00000275     -3518.0565530433  3.63E-06
    23 Broy./Diag. 0.30E+00    1.0     0.00000178     -3518.0564909190  6.21E-05
    24 Broy./Diag. 0.30E+00    1.1     0.00000067     -3518.0564762516  1.47E-05
    25 Broy./Diag. 0.30E+00    1.1     0.00000039     -3518.0564870887 -1.08E-05
    26 Broy./Diag. 0.30E+00    1.0     0.00000014     -3518.0564827214  4.37E-06
    27 Broy./Diag. 0.30E+00    1.0     0.00000016     -3518.0564732957  9.43E-06
    28 Broy./Diag. 0.30E+00    1.0     0.00000009     -3518.0564641478  9.15E-06

  *** SCF run converged in    28 steps ***


  Electronic density on regular grids:      -1183.9999999802        0.0000000198
  Core density on regular grids:             1183.9999998084       -0.0000001916
  Total charge density on r-space grids:       -0.0000001718
  Total charge density g-space grids:          -0.0000001718

  Overlap energy of the core charge distribution:               0.00001349915783
  Self energy of the core charge distribution:              -6148.38221378166963
  Core Hamiltonian energy:                                   1946.17719843170221
  Hartree energy:                                            1240.32808247636103
  Exchange-correlation energy:                               -556.17535233662170
  Electronic entropic energy:                                  -0.00419243633354
  Fermi energy:                                                 0.25210130150099

  Total energy:                                             -3518.05646414775902

 The electron density is written in cube file format to the file:

 dft_wfn-ELECTRON_DENSITY-1_0.cube

 !-----------------------------------------------------------------------------!
                     Mulliken Population Analysis

 #  Atom  Element  Kind  Atomic population                           Net charge
       1     Au       1         10.999245                              0.000755
       2     Au       1         10.999244                              0.000756
       3     Au       1         11.003755                             -0.003755
       4     Au       1         10.998275                              0.001725
       5     Au       1         11.004442                             -0.004442
       6     Au       1         11.004442                             -0.004442
       7     Au       1         11.003751                             -0.003751
       8     Au       1         10.998262                              0.001738
       9     Au       1         10.996192                              0.003808
      10     Au       1         11.000354                             -0.000354
      11     Au       1         10.998850                              0.001150
      12     Au       1         10.998849                              0.001151
      13     Au       1         11.000531                             -0.000531
      14     Au       1         10.995631                              0.004369
      15     Au       1         10.998844                              0.001156
      16     Au       1         10.998843                              0.001157
      17     Au       1         10.995191                              0.004809
      18     Au       1         10.995191                              0.004809
      19     Au       1         11.000464                             -0.000464
      20     Au       1         10.995072                              0.004928
      21     Au       1         11.000227                             -0.000227
      22     Au       1         11.000225                             -0.000225
      23     Au       1         11.000479                             -0.000479
      24     Au       1         10.995034                              0.004966
      25     Au       1         10.994182                              0.005818
      26     Au       1         11.003611                             -0.003611
      27     Au       1         10.993636                              0.006364
      28     Au       1         10.993676                              0.006324
      29     Au       1         11.000856                             -0.000856
      30     Au       1         10.993919                              0.006081
      31     Au       1         10.993653                              0.006347
      32     Au       1         10.993694                              0.006306
      33     Au       1         10.978215                              0.021785
      34     Au       1         10.978180                              0.021820
      35     Au       1         10.983566                              0.016434
      36     Au       1         10.979503                              0.020497
      37     Au       1         10.982375                              0.017625
      38     Au       1         10.982336                              0.017664
      39     Au       1         10.983566                              0.016434
      40     Au       1         10.979486                              0.020514
      41     Au       1         10.930605                              0.069395
      42     Au       1         10.970186                              0.029814
      43     Au       1         10.947052                              0.052948
      44     Au       1         10.947053                              0.052947
      45     Au       1         10.948168                              0.051832
      46     Au       1         10.935645                              0.064355
      47     Au       1         10.947043                              0.052957
      48     Au       1         10.947043                              0.052957
      49     Au       1         11.094774                             -0.094774
      50     Au       1         11.095168                             -0.095168
      51     Au       1         11.255814                             -0.255814
      52     Au       1         11.091514                             -0.091514
      53     Au       1         11.229695                             -0.229695
      54     Au       1         11.230368                             -0.230368
      55     Au       1         11.255998                             -0.255998
      56     Au       1         11.091514                             -0.091514
      57     S        2          5.311294                              0.688706
      58     C        3          4.084183                             -0.084183
      59     H        4          0.845166                              0.154834
      60     H        4          0.844729                              0.155271
      61     C        3          4.102378                             -0.102378
      62     C        3          4.104537                             -0.104537
      63     C        3          4.104370                             -0.104370
      64     C        3          4.102200                             -0.102200
      65     H        4          0.844648                              0.155352
      66     H        4          0.845353                              0.154647
      67     C        3          4.084487                             -0.084487
      68     S        2          5.311208                              0.688792
      69     Au       1         11.095184                             -0.095184
      70     Au       1         11.094766                             -0.094766
      71     Au       1         11.256134                             -0.256134
      72     Au       1         11.091530                             -0.091530
      73     Au       1         11.230349                             -0.230349
      74     Au       1         11.229626                             -0.229626
      75     Au       1         11.255593                             -0.255593
      76     Au       1         11.091518                             -0.091518
      77     Au       1         10.930605                              0.069395
      78     Au       1         10.970184                              0.029816
      79     Au       1         10.947071                              0.052929
      80     Au       1         10.947071                              0.052929
      81     Au       1         10.948175                              0.051825
      82     Au       1         10.935650                              0.064350
      83     Au       1         10.947039                              0.052961
      84     Au       1         10.947036                              0.052964
      85     Au       1         10.978180                              0.021820
      86     Au       1         10.978215                              0.021785
      87     Au       1         10.983535                              0.016465
      88     Au       1         10.979485                              0.020515
      89     Au       1         10.982329                              0.017671
      90     Au       1         10.982377                              0.017623
      91     Au       1         10.983594                              0.016406
      92     Au       1         10.979503                              0.020497
      93     Au       1         10.994183                              0.005817
      94     Au       1         11.003612                             -0.003612
      95     Au       1         10.993706                              0.006294
      96     Au       1         10.993662                              0.006338
      97     Au       1         11.000858                             -0.000858
      98     Au       1         10.993920                              0.006080
      99     Au       1         10.993671                              0.006329
     100     Au       1         10.993628                              0.006372
     101     Au       1         10.995194                              0.004806
     102     Au       1         10.995187                              0.004813
     103     Au       1         11.000462                             -0.000462
     104     Au       1         10.995067                              0.004933
     105     Au       1         11.000221                             -0.000221
     106     Au       1         11.000229                             -0.000229
     107     Au       1         11.000480                             -0.000480
     108     Au       1         10.995037                              0.004963
     109     Au       1         10.996193                              0.003807
     110     Au       1         11.000354                             -0.000354
     111     Au       1         10.998839                              0.001161
     112     Au       1         10.998840                              0.001160
     113     Au       1         11.000532                             -0.000532
     114     Au       1         10.995632                              0.004368
     115     Au       1         10.998854                              0.001146
     116     Au       1         10.998856                              0.001144
 # Total charge                           1184.000000                  0.000000

 !-----------------------------------------------------------------------------!

 !-----------------------------------------------------------------------------!
                           Hirshfeld Charges

  #Atom  Element  Kind  Ref Charge     Population                    Net charge
      1       Au     1      11.000         11.000                         0.000
      2       Au     1      11.000         11.000                         0.000
      3       Au     1      11.000         11.004                        -0.004
      4       Au     1      11.000         10.999                         0.001
      5       Au     1      11.000         11.004                        -0.004
      6       Au     1      11.000         11.004                        -0.004
      7       Au     1      11.000         11.004                        -0.004
      8       Au     1      11.000         10.999                         0.001
      9       Au     1      11.000         10.998                         0.002
     10       Au     1      11.000         10.998                         0.002
     11       Au     1      11.000         11.001                        -0.001
     12       Au     1      11.000         11.001                        -0.001
     13       Au     1      11.000         10.999                         0.001
     14       Au     1      11.000         10.997                         0.003
     15       Au     1      11.000         11.001                        -0.001
     16       Au     1      11.000         11.001                        -0.001
     17       Au     1      11.000         10.999                         0.001
     18       Au     1      11.000         10.999                         0.001
     19       Au     1      11.000         10.998                         0.002
     20       Au     1      11.000         10.999                         0.001
     21       Au     1      11.000         10.998                         0.002
     22       Au     1      11.000         10.998                         0.002
     23       Au     1      11.000         10.998                         0.002
     24       Au     1      11.000         10.999                         0.001
     25       Au     1      11.000         10.999                         0.001
     26       Au     1      11.000         11.001                        -0.001
     27       Au     1      11.000         11.003                        -0.003
     28       Au     1      11.000         11.003                        -0.003
     29       Au     1      11.000         11.001                        -0.001
     30       Au     1      11.000         10.999                         0.001
     31       Au     1      11.000         11.003                        -0.003
     32       Au     1      11.000         11.003                        -0.003
     33       Au     1      11.000         10.997                         0.003
     34       Au     1      11.000         10.997                         0.003
     35       Au     1      11.000         11.000                        -0.000
     36       Au     1      11.000         10.997                         0.003
     37       Au     1      11.000         11.000                        -0.000
     38       Au     1      11.000         11.000                        -0.000
     39       Au     1      11.000         11.000                        -0.000
     40       Au     1      11.000         10.997                         0.003
     41       Au     1      11.000         10.980                         0.020
     42       Au     1      11.000         10.989                         0.011
     43       Au     1      11.000         10.991                         0.009
     44       Au     1      11.000         10.991                         0.009
     45       Au     1      11.000         10.995                         0.005
     46       Au     1      11.000         10.980                         0.020
     47       Au     1      11.000         10.991                         0.009
     48       Au     1      11.000         10.991                         0.009
     49       Au     1      11.000         11.044                        -0.044
     50       Au     1      11.000         11.044                        -0.044
     51       Au     1      11.000         10.999                         0.001
     52       Au     1      11.000         11.042                        -0.042
     53       Au     1      11.000         11.002                        -0.002
     54       Au     1      11.000         11.003                        -0.003
     55       Au     1      11.000         10.999                         0.001
     56       Au     1      11.000         11.042                        -0.042
     57       S      2       6.000          5.942                         0.058
     58       C      3       4.000          3.995                         0.005
     59       H      4       1.000          0.954                         0.046
     60       H      4       1.000          0.953                         0.047
     61       C      3       4.000          4.039                        -0.039
     62       C      3       4.000          4.040                        -0.040
[...]
     58       C      3       4.000          3.995                         0.005
     59       H      4       1.000          0.952                         0.048
     60       H      4       1.000          0.952                         0.048
     61       C      3       4.000          4.041                        -0.041
     62       C      3       4.000          4.041                        -0.041
     63       C      3       4.000          4.040                        -0.040
     64       C      3       4.000          4.040                        -0.040
     65       H      4       1.000          0.951                         0.049
     66       H      4       1.000          0.951                         0.049
     67       C      3       4.000          3.995                         0.005
     68       S      2       6.000          5.950                         0.050
     69       Au     1      11.000         11.039                        -0.039
     70       Au     1      11.000         11.039                        -0.039
     71       Au     1      11.000         11.004                        -0.004
     72       Au     1      11.000         11.037                        -0.037
     73       Au     1      11.000         11.007                        -0.007
     74       Au     1      11.000         11.007                        -0.007
     75       Au     1      11.000         11.005                        -0.005
     76       Au     1      11.000         11.035                        -0.035
     77       Au     1      11.000         10.978                         0.022
     78       Au     1      11.000         10.988                         0.012
     79       Au     1      11.000         10.993                         0.007
     80       Au     1      11.000         10.993                         0.007
     81       Au     1      11.000         11.001                        -0.001
     82       Au     1      11.000         10.976                         0.024
     83       Au     1      11.000         10.993                         0.007
     84       Au     1      11.000         10.993                         0.007
     85       Au     1      11.000         10.996                         0.004
     86       Au     1      11.000         10.996                         0.004
     87       Au     1      11.000         10.999                         0.001
     88       Au     1      11.000         10.996                         0.004
     89       Au     1      11.000         10.999                         0.001
     90       Au     1      11.000         10.999                         0.001
     91       Au     1      11.000         10.999                         0.001
     92       Au     1      11.000         10.996                         0.004
     93       Au     1      11.000         11.000                         0.000
     94       Au     1      11.000         11.001                        -0.001
     95       Au     1      11.000         11.003                        -0.003
     96       Au     1      11.000         11.003                        -0.003
     97       Au     1      11.000         11.000                        -0.000
     98       Au     1      11.000         10.999                         0.001
     99       Au     1      11.000         11.003                        -0.003
    100       Au     1      11.000         11.003                        -0.003
    101       Au     1      11.000         10.999                         0.001
    102       Au     1      11.000         10.999                         0.001
    103       Au     1      11.000         10.998                         0.002
    104       Au     1      11.000         10.999                         0.001
    105       Au     1      11.000         10.998                         0.002
    106       Au     1      11.000         10.998                         0.002
    107       Au     1      11.000         10.998                         0.002
    108       Au     1      11.000         10.999                         0.001
    109       Au     1      11.000         10.998                         0.002
    110       Au     1      11.000         10.998                         0.002
    111       Au     1      11.000         11.001                        -0.001
    112       Au     1      11.000         11.001                        -0.001
    113       Au     1      11.000         10.999                         0.001
    114       Au     1      11.000         10.997                         0.003
    115       Au     1      11.000         11.001                        -0.001
    116       Au     1      11.000         11.001                        -0.001

  Total Charge                                                           -0.000
 !-----------------------------------------------------------------------------!

 ENERGY| Total FORCE_EVAL ( QS ) energy [a.u.]:            -3518.092219867452513

 -------------------------------------------------------------------------------
 -                                                                             -
 -                                DBCSR STATISTICS                             -
 -                                                                             -
 -------------------------------------------------------------------------------
 COUNTER                                    TOTAL       BLAS       SMM       ACC
 flops inhomo. stacks                           0       0.0%      0.0%      0.0%
 flops total                         0.000000E+00       0.0%      0.0%      0.0%
 flops max/rank                      0.000000E+00       0.0%      0.0%      0.0%
 matmuls inhomo. stacks                         0       0.0%      0.0%      0.0%
 matmuls total                                  0       0.0%      0.0%      0.0%
 number of processed stacks                     0       0.0%      0.0%      0.0%
 average stack size                                     0.0       0.0       0.0
 marketing flops                     0.000000E+00
 -------------------------------------------------------------------------------
 -                                                                             -
 -                      DBCSR MESSAGE PASSING PERFORMANCE                      -
 -                                                                             -
 -------------------------------------------------------------------------------
 ROUTINE             CALLS      AVE VOLUME [Bytes]
 MP_Bcast                1                     12.
 MP_Allreduce        30389                      8.
 MP_Alltoall        131368                 174392.
 -------------------------------------------------------------------------------

 -------------------------------------------------------------------------------
 -                                                                             -
 -                                DBM STATISTICS                               -
 -                                                                             -
 -------------------------------------------------------------------------------
    M  x    N  x    K                                          COUNT     PERCENT
 -------------------------------------------------------------------------------

 -------------------------------------------------------------------------------
 -                                                                             -
 -                                GRID STATISTICS                              -
 -                                                                             -
 -------------------------------------------------------------------------------
 LP    KERNEL             BACKEND                              COUNT     PERCENT
 4     collocate ortho    REF                               35485603      42.69%
 4     integrate ortho    REF                               34396626      41.38%
 0     collocate general  REF                                3006720       3.62%
 0     integrate general  REF                                2672640       3.22%
 3     collocate ortho    REF                                1588647       1.91%
 3     integrate ortho    REF                                1570997       1.89%
 2     collocate ortho    REF                                1131546       1.36%
 2     integrate ortho    REF                                1104493       1.33%
 5     integrate ortho    REF                                1040984       1.25%
 1     collocate ortho    REF                                 312066       0.38%
 1     integrate general  REF                                 306240       0.37%
 1     integrate ortho    REF                                 305142       0.37%
 0     collocate ortho    REF                                 104366       0.13%
 0     integrate ortho    REF                                 101026       0.12%
 -------------------------------------------------------------------------------

 MEMORY| Estimated peak process memory [MiB]                                2070

 -------------------------------------------------------------------------------
 ----                             MULTIGRID INFO                            ----
 -------------------------------------------------------------------------------
 count for grid        1:         430362          cutoff [a.u.]          200.00
 count for grid        2:         970597          cutoff [a.u.]           66.67
 count for grid        3:         630814          cutoff [a.u.]           22.22
 count for grid        4:         626922          cutoff [a.u.]            7.41
 total gridlevel count  :        2658695

 -------------------------------------------------------------------------------
 -                                                                             -
 -                         MESSAGE PASSING PERFORMANCE                         -
 -                                                                             -
 -------------------------------------------------------------------------------

 ROUTINE             CALLS      AVE VOLUME [Bytes]
 MP_Group                5
 MP_Bcast            53330                  12230.
 MP_Allreduce        20176                    548.
 MP_Sync              4520
 MP_Alltoall          6900
 MP_ISendRecv       358022                   4000.
 MP_Wait            486847
 MP_comm_split          11
 MP_ISend           184255                  25245.
 MP_IRecv           184353                  25233.
 MP_Recv             29410                 247548.
 MP_Write_All           24                  33180.
 -------------------------------------------------------------------------------


 -------------------------------------------------------------------------------
 -                                                                             -
 -                           R E F E R E N C E S                               -
 -                                                                             -
 -------------------------------------------------------------------------------
 
 CP2K version 2022.1 (Development Version), the CP2K developers group (2022).
 CP2K is freely available from https://www.cp2k.org/ .

 Kuehne,Thomas D.; Iannuzzi,Marcella; Del Ben,Mauro;
 Rybkin,Vladimir V.; Seewald,Patrick; Stein,Frederick; Laino,Teodoro;
 Khaliullin,Rustam Z.; Schuett,Ole; Schiffmann,Florian; Golze,Dorothea;
 Wilhelm,Jan; Chulkov,Sergey; Bani-Hashemian,Mohammad Hossein;
 Weber,Valery; Borstnik,Urban; Taillefumier,Mathieu;
 Jakobovits,Alice Shoshana; Lazzaro,Alfio; Pabst,Hans; Mueller,Tiziano;
 Schade,Robert; Guidon,Manuel; Andermatt,Samuel; Holmberg,Nico;
 Schenter,Gregory K.; Hehn,Anna; Bussy,Augustin; Belleflamme,Fabian;
 Tabacchi,Gloria; Gloess,Andreas; Lass,Michael; Bethune,Iain;
 Mundy,Christopher J.; Plessl,Christian; Watkins,Matt;
 VandeVondele,Joost; Krack,Matthias; Hutter,Juerg. 
 The Journal of Chemical Physics, 152 (19), (2020). 
 CP2K: An electronic structure and molecular dynamics software package -
 Quickstep: Efficient and accurate electronic structure calculations.
 https://doi.org/10.1063/5.0007045

 Togo, Atsushi; Tanaka, Isao. arXiv, 1808.01590 (2018). 
 Spglib : a software library for crystal symmetry search.
 https://doi.org/xxx

 Schuett, Ole; Messmer, Peter; Hutter, Juerg; VandeVondele, Joost. 
 Electronic Structure Calculations on Graphics Processing Units, John
 Wiley & Sons, Ltd, 173-190 (2016). 
 GPU-Accelerated Sparse Matrix-Matrix Multiplication for
 Linear Scaling Density Functional Theory.
 https://doi.org/10.1002/9781118670712.ch8

 Heinecke, A; Henry, G; Hutchinson, M; Pabst, H. 
 Proceedings of Intl. Supercomputing Conference, 981-991 (2016). 
 LIBXSMM: Accelerating Small Matrix Multiplications
 by Runtime Code Generation.
 https://doi.org/10.1109/SC.2016.83

 Borstnik, U; VandeVondele, J; Weber, V; Hutter, J. 
 PARALLEL COMPUTING, 40 (5-6), 47-58 (2014). 
 Sparse matrix multiplication: The distributed block-compressed sparse
 row library.
 https://doi.org/10.1016/j.parco.2014.03.012

 Hutter, J; Iannuzzi, M; Schiffmann, F; VandeVondele, J. 
 WIREs Comput Mol Sci., 4 (1), 15-25 (2014). 
 CP2K: atomistic simulations of condensed matter systems.
 https://doi.org/10.1002/wcms.1159

 VandeVondele, J; Hutter, J. 
 JOURNAL OF CHEMICAL PHYSICS, 127 (11), 114105 (2007). 
 Gaussian basis sets for accurate calculations on molecular systems in
 gas and condensed phases.
 https://doi.org/10.1063/1.2770708

 Krack, M. 
 THEORETICAL CHEMISTRY ACCOUNTS, 114 (1-3), 145-152 (2005). 
 Pseudopotentials for H to Kr optimized for gradient-corrected
 exchange-correlation functionals.
 https://doi.org/10.1007/s00214-005-0655-y

 VandeVondele, J; Krack, M; Mohamed, F; Parrinello, M; Chassaing, T;
 Hutter, J. COMPUTER PHYSICS COMMUNICATIONS, 167 (2), 103-128 (2005). 
 QUICKSTEP: Fast and accurate density functional calculations using a
 mixed Gaussian and plane waves approach.
 https://doi.org/10.1016/j.cpc.2004.12.014

 Frigo, M; Johnson, SG. 
 PROCEEDINGS OF THE IEEE, 93 (2), 216-231 (2005). 
 The design and implementation of FFTW3.
 https://doi.org/10.1109/JPROC.2004.840301

 Hartwigsen, C; Goedecker, S; Hutter, J. 
 PHYSICAL REVIEW B, 58 (7), 3641-3662 (1998). 
 Relativistic separable dual-space Gaussian pseudopotentials from H to Rn.
 https://doi.org/10.1103/PhysRevB.58.3641

 Lippert, G; Hutter, J; Parrinello, M. 
 MOLECULAR PHYSICS, 92 (3), 477-487 (1997). 
 A hybrid Gaussian and plane wave density functional scheme.
 https://doi.org/10.1080/002689797170220

 Goedecker, S; Teter, M; Hutter, J. 
 PHYSICAL REVIEW B, 54 (3), 1703-1710 (1996). 
 Separable dual-space Gaussian pseudopotentials.
 https://doi.org/10.1103/PhysRevB.54.1703


 -------------------------------------------------------------------------------
 -                                                                             -
 -                                T I M I N G                                  -
 -                                                                             -
 -------------------------------------------------------------------------------
 SUBROUTINE                       CALLS  ASD         SELF TIME        TOTAL TIME
                                MAXIMUM       AVERAGE  MAXIMUM  AVERAGE  MAXIMUM
 CP2K                                 1  1.0    0.160    0.260  418.587  418.665
 cp_geo_opt                           1  2.0    0.010    0.010  418.139  418.146
 geoopt_bfgs                          1  3.0    0.004    0.104  418.129  418.136
 cp_eval_at                          12  4.0    0.001    0.002  416.013  416.015
 qs_energies                         12  5.9    0.002    0.003  412.815  412.818
 scf_env_do_scf                      12  6.9    0.001    0.006  395.251  395.825
 scf_env_do_scf_inner_loop          363  7.9    0.067   11.760  395.249  395.819
 qs_forces                           11  5.0    0.002    0.002  377.778  377.781
 qs_scf_new_mos_kp                  363  8.9    0.003    0.004  316.422  316.458
 do_general_diag_kp                 363  9.9    0.047    0.054  316.419  316.456
 cp_cfm_geeig                      1452 10.9    0.015    0.019  257.888  258.011
 cp_cfm_heevd                      1452 11.9  222.884  223.492  222.884  223.492
 copy_dbcsr_to_fm                  6782 10.8    0.069    0.079   42.268   42.918
 dbcsr_desymmetrize_deep          12590 11.4    0.264    0.323   37.803   38.688
 qs_ks_update_qs_env                363  8.9    0.003    0.003   30.480   30.556
 mp_alltoall_i22                  22364 12.7   24.846   27.658   24.846   27.658
 write_kpoints_restart              363  8.9    0.036    6.663   23.894   25.084
 rs_pw_transfer                    3043 13.3    0.031    0.045   22.251   24.026
 qs_rho_update_rho_low              375  8.9    0.002    0.002   22.358   22.382
 calculate_rho_elec                 375  9.9    0.030    0.035   22.357   22.381
 mp_alltoall_d11v                 67852 13.3   17.155   20.269   17.155   20.269
 rebuild_ks_matrix                  374  9.8    0.001    0.002   18.897   18.925
 qs_ks_build_kohn_sham_matrix       374 10.8    0.051    0.057   18.896   18.923
 dbcsr_complete_redistribute       9774 12.1    0.508    0.675   18.316   18.735
 cp_cfm_triangular_multiply        4356 11.9   17.247   18.200   17.247   18.200
 mp_waitany                       92736 15.3   13.099   16.895   13.099   16.895
 sum_up_and_integrate               374 11.8    0.013    0.024   16.663   16.758
 integrate_v_rspace                 374 12.8    0.009    0.011   16.650   16.750
 density_rs2pw                      375 10.9    0.011    0.016   14.639   16.142
 cp_fm_write_unformatted            984  9.9    1.016   14.257    1.181   15.431
 mp_sum_d                         33749 12.6   13.812   15.014   13.812   15.014
 scf_post_calculation_gpw            12  6.9    0.000    0.001   14.432   14.436
 write_available_results             12  7.9    0.000    0.000   14.432   14.435
 write_mo_free_results               12  8.9    6.545    6.559   14.431   14.434
 mp_alltoall_i11v                 41912 12.9   13.092   14.432   13.092   14.432
 kpoint_density_matrices            374 10.8    0.093    0.099   14.318   14.405
 cp_gemm                           5995 11.8    0.005    0.006   14.224   14.318
 cp_gemm_fm_gemm                   5995 12.8    0.005    0.007   14.219   14.313
 cp_fm_gemm                        5995 13.8   14.214   14.308   14.214   14.308
 dbcsr_dot_sd                     30370 11.8    0.197    0.326   12.609   12.673
 evaluate_core_matrix_traces        374  9.8    0.001    0.001   12.458   12.520
 calculate_ptrace_kp                748 10.8    0.013    0.016   12.457   12.519
 potential_pw2rs                    374 13.8    0.010    0.012   11.951   12.048
 cp_cfm_cholesky_decompose         1452 11.9   10.733   11.126   10.733   11.126
 hybrid_alltoall_any              12590 12.4    0.053    0.058    8.199    9.881
 cp_fm_start_copy_general          8800 11.2    0.453    0.701    8.601    8.965
 -------------------------------------------------------------------------------

 The number of warnings for this run is : 0
 
 -------------------------------------------------------------------------------
  **** **** ******  **  PROGRAM ENDED AT                 2023-02-21 21:58:42.278
 ***** ** ***  *** **   PROGRAM RAN ON                     cn1057.scarf.rl.ac.uk
 **    ****   ******    PROGRAM RAN BY                                 scarf1157
 ***** **    ** ** **   PROGRAM PROCESS ID                                 50727
  **** **  *******  **  PROGRAM STOPPED IN /work4/scd/scarf1157/work/testing/cp2
                                           k-smeagol/bdt/cp2k/hollow-site/transp
                                           ort-cp2k/5-4/geometry-ordered/3x3-4/s
                                           z/bulk_layers-4/geo_opt/Au-S-2.6_dft
