Siesta Version: ismeagol.1.0
Architecture  : thomas-intel2017update1-intelmpi-mkl
Compiler flags: mpif90 -O2 -fPIC -g -ftree-vectorize -xHost
PARALLEL version

* Running on   64 nodes in parallel
>> Start of run:   3-NOV-2023  11:49:48

                           ***********************       
                           *  WELCOME TO SIESTA  *       
                           ***********************       

reinit: Reading from standard input
************************** Dump of input data file ****************************
SystemName		     dft_wfn		# Descriptive name of the system
SystemLabel 			dft_wfn		# Short name for naming files
NumberOfAtoms    96
NumberOfSpecies			1               # Number of species
PAO.BasisType			split		
%block ChemicalSpeciesLabel
1 79 Au
%endblock ChemicalSpeciesLabel
%block PAO.Basis
  Au  2
n=6  0  1
6.500
1.00
n=5  2  1
5.850
1.00
%endblock PAO.Basis
%block PS.lmax
 Au   3
%endblock PS.lmax
LatticeConstant 1.000 Ang
%block LatticeVectors
   8.336     0.000   0.000	  1
  0.000    8.336     0.000   1
  0.000   0.000     33.926  1
%endblock LatticeVectors
AtomicCoordinatesFormat Ang
%block AtomicCoordinatesAndAtomicSpecies
0.0 0.0 0.0 1 Au
0.0 4.168 0.0 1 Au
2.084 2.084 0.0 1 Au
2.084 6.252 0.0 1 Au
4.168 0.0 0.0 1 Au
4.168 4.168 0.0 1 Au
6.252 2.084 0.0 1 Au
6.252 6.252 0.0 1 Au
0.0 2.084 2.084 1 Au
0.0 6.252 2.084 1 Au
2.084 0.0 2.084 1 Au
2.084 4.168 2.084 1 Au
4.168 2.084 2.084 1 Au
4.168 6.252 2.084 1 Au
6.252 0.0 2.084 1 Au
6.252 4.168 2.084 1 Au
0.0 0.0 4.168 1 Au
0.0 4.168 4.168 1 Au
2.084 2.084 4.168 1 Au
2.084 6.252 4.168 1 Au
4.168 0.0 4.168 1 Au
4.168 4.168 4.168 1 Au
6.252 2.084 4.168 1 Au
6.252 6.252 4.168 1 Au
0.0 2.084 6.252 1 Au
0.0 6.252 6.252 1 Au
2.084 0.0 6.252 1 Au
2.084 4.168 6.252 1 Au
4.168 2.084 6.252 1 Au
4.168 6.252 6.252 1 Au
6.252 0.0 6.252 1 Au
6.252 4.168 6.252 1 Au
0.0 0.0 8.336 1 Au
0.0 4.168 8.336 1 Au
2.084 2.084 8.336 1 Au
2.084 6.252 8.336 1 Au
4.168 0.0 8.336 1 Au
4.168 4.168 8.336 1 Au
6.252 2.084 8.336 1 Au
6.252 6.252 8.336 1 Au
0.0 2.084 10.42 1 Au
0.0 6.252 10.42 1 Au
2.084 0.0 10.42 1 Au
2.084 4.168 10.42 1 Au
4.168 2.084 10.42 1 Au
4.168 6.252 10.42 1 Au
6.252 0.0 10.42 1 Au
6.252 4.168 10.42 1 Au
0.0 0.0 21.422 1 Au
0.0 4.168 21.422 1 Au
2.084 2.084 21.422 1 Au
2.084 6.252 21.422 1 Au
4.168 0.0 21.422 1 Au
4.168 4.168 21.422 1 Au
6.252 2.084 21.422 1 Au
6.252 6.252 21.422 1 Au
0.0 2.084 23.506 1 Au
0.0 6.252 23.506 1 Au
2.084 0.0 23.506 1 Au
2.084 4.168 23.506 1 Au
4.168 2.084 23.506 1 Au
4.168 6.252 23.506 1 Au
6.252 0.0 23.506 1 Au
6.252 4.168 23.506 1 Au
0.0 0.0 25.59 1 Au
0.0 4.168 25.59 1 Au
2.084 2.084 25.59 1 Au
2.084 6.252 25.59 1 Au
4.168 0.0 25.59 1 Au
4.168 4.168 25.59 1 Au
6.252 2.084 25.59 1 Au
6.252 6.252 25.59 1 Au
0.0 2.084 27.674 1 Au
0.0 6.252 27.674 1 Au
2.084 0.0 27.674 1 Au
2.084 4.168 27.674 1 Au
4.168 2.084 27.674 1 Au
4.168 6.252 27.674 1 Au
6.252 0.0 27.674 1 Au
6.252 4.168 27.674 1 Au
0.0 0.0 29.758 1 Au
0.0 4.168 29.758 1 Au
2.084 2.084 29.758 1 Au
2.084 6.252 29.758 1 Au
4.168 0.0 29.758 1 Au
4.168 4.168 29.758 1 Au
6.252 2.084 29.758 1 Au
6.252 6.252 29.758 1 Au
0.0 2.084 31.842 1 Au
0.0 6.252 31.842 1 Au
2.084 0.0 31.842 1 Au
2.084 4.168 31.842 1 Au
4.168 2.084 31.842 1 Au
4.168 6.252 31.842 1 Au
6.252 0.0 31.842 1 Au
6.252 4.168 31.842 1 Au
%endblock AtomicCoordinatesAndAtomicSpecies 	
%block kgrid_Monkhorst_Pack
  4   0   0     0.0
  0   4   0     0.0
  0   0   1     0.0
%endblock kgrid_Monkhorst_Pack
xc.functional		LDA		# 'LDA', 'GGA'
xc.authors 	 		CA		# 'CA'='PZ', 'PW92', 'PBE'
SpinPolarized			F		# 'T', 'F'		
#FixSpin           F
#TotalSpin        0.0
NonCollinearSpin		F		# 'T', 'F'
MeshCutoff 	 		    200 Ry		# Equivalent plane wave cutoff for the grid
MaxSCFIterations		200
DM.MixingWeight			0.1
DM.NumberPulay			4	# Pulay convergency accelerator
DM.MixSCF1			    T
MixHamiltonian      T
DM.PulayOnFile			F		# Store in memory ('F') or in files ('T')
#DM.NumberKick         30
#DM.KickMixingWeight   0.1
DM.Tolerance 		1.0E-4
NeglNonOverlapInt		F		# 'F'=do not neglect
SolutionMethod			diagon
ElectronicTemperature		300 K		# Default value
DM.UseSaveDM 			T
#MD.UseSaveXV			T
#MD.UseSaveCG			T
WriteForces      T
WriteCoorXmol			T		# Write Atoms coordinates
SaveElectrostaticPotential      T
#SaveHS				T		# Save the Hamiltonian and Overlap matrices
SaveRho				T		# Save the valence pseudocharge density
#SaveDeltaRho			T
#WriteDenchar			T		# Write Denchar output
WriteMullikenPop		0 #write mulliken population of aromic and orbital charges
************************** End of input data file *****************************

reinit: -----------------------------------------------------------------------
reinit: System Name: dft_wfn
reinit: -----------------------------------------------------------------------
reinit: System Label: dft_wfn                                                     
reinit: -----------------------------------------------------------------------

initatom: Reading input for the pseudopotentials and atomic orbitals ----------
 Species number:            1  Label: Au Atomic number:          79
Ground state valence configuration:   6s01  5d10
Reading pseudopotential information in formatted form from Au.psf

Pseudopotential generated from a relativistic atomic calculation
There are spin-orbit pseudopotentials available
Spin-orbit interaction is not included in this calculation

Valence configuration for pseudopotential generation:
6s( 1.00) rc: 2.18
6p( 0.00) rc: 2.47
5d(10.00) rc: 1.79
5f( 0.00) rc: 2.00
relmxkb: Read Max KB Ang. Momentum=    3 for species Au
 Warning: Empty PAO shell. l =           1
 Will have a KB projector anyway...

<basis_specs>
===============================================================================
Au                   Z=  79    Mass=  196.97        Charge= 0.17977+309
Lmxo=2 Lmxkb= 3    BasisType=split      Semic=F
L=0  Nsemic=0  Cnfigmx=6
          n=1  nzeta=1  polorb=0
            splnorm:   0.15000    
               vcte:    0.0000    
               rinn:    0.0000    
                rcs:    6.5000    
            lambdas:    1.0000    
L=1  Nsemic=0  Cnfigmx=6
L=2  Nsemic=0  Cnfigmx=5
          n=1  nzeta=1  polorb=0
            splnorm:   0.15000    
               vcte:    0.0000    
               rinn:    0.0000    
                rcs:    5.8500    
            lambdas:    1.0000    
-------------------------------------------------------------------------------
L=0  Nkbl=1  erefs: 0.17977+309
L=1  Nkbl=1  erefs: 0.17977+309
L=2  Nkbl=1  erefs: 0.17977+309
L=3  Nkbl=1  erefs: 0.17977+309
===============================================================================
</basis_specs>

atom: Called for Au                    (Z =  79)

read_vps: Pseudopotential generation method:
read_vps: ATM3      Troullier-Martins                       
Total valence charge:   11.00000

read_vps: Pseudopotential includes a core correction:
read_vps: Pseudo-core for xc-correction

xc_check: Exchange-correlation functional:
xc_check: Ceperley-Alder
V l=0 = -2*Zval/r beyond r=  2.9833
V l=1 = -2*Zval/r beyond r=  2.9833
V l=2 = -2*Zval/r beyond r=  2.9833
V l=3 = -2*Zval/r beyond r=  2.9833
All V_l potentials equal beyond r=  2.4425
This should be close to max(r_c) in ps generation
All pots = -2*Zval/r beyond r=  2.9833

VLOCAL1: 99.0% of the norm of Vloc inside      7.276 Ry
VLOCAL1: 99.9% of the norm of Vloc inside     16.582 Ry
atom: Maximum radius for 4*pi*r*r*local-pseudopot. charge    2.94627
atom: Maximum radius for r*vlocal+2*Zval:    2.60007
GHOST: No ghost state for L =  0
GHOST: No ghost state for L =  1
GHOST: No ghost state for L =  2
GHOST: No ghost state for L =  3

KBgen: Kleinman-Bylander projectors: 
   l= 0   rc=  3.175745   el= -0.445638   Ekb=  5.072790   kbcos=  0.276607
   l= 1   rc=  3.256140   el= -0.066324   Ekb=  2.703235   kbcos=  0.227171
   l= 2   rc=  3.020861   el= -0.526103   Ekb= -4.704026   kbcos= -0.643795
   l= 3   rc=  3.466145   el=  0.003438   Ekb= -2.516122   kbcos= -0.010529

KBgen: Total number of  Kleinman-Bylander projectors:   16
atom: -------------------------------------------------------------------------

atom: SANKEY-TYPE ORBITALS:

SPLIT: Orbitals with angular momentum L= 0

SPLIT: Basis orbitals for state 6s

   izeta = 1
                 lambda =    1.000000
                     rc =    6.557093
                 energy =   -0.435455
                kinetic =    0.389259
    potential(screened) =   -0.824714
       potential(ionic) =   -8.467175

SPLIT: Orbitals with angular momentum L= 2

SPLIT: Basis orbitals for state 5d

   izeta = 1
                 lambda =    1.000000
                     rc =    5.933100
                 energy =   -0.524775
                kinetic =    4.913203
    potential(screened) =   -5.437978
       potential(ionic) =  -15.883506
atom: Total number of Sankey-type orbitals:  6

atm_pop: Valence configuration (for local Pseudopot. screening):
 6s( 1.00)                                                            
 6p( 0.00)                                                            
 5d(10.00)                                                            
Vna: chval, zval:   11.00000  11.00000

Vna:  Cut-off radius for the neutral-atom potential:   6.557093
comcore: Pseudo-core radius Rcore=  4.027091

atom: _________________________________________________________________________

prinput: Basis input ----------------------------------------------------------

PAO.BasisType split     

%block ChemicalSpeciesLabel
    1   79 Au                      # Species index, atomic number, species label
%endblock ChemicalSpeciesLabel

%block PAO.Basis                 # Define Basis set
Au                    2                    # Species label, number of l-shells
 n=6   0   1                         # n, l, Nzeta 
   6.557   
   1.000   
 n=5   2   1                         # n, l, Nzeta 
   5.933   
   1.000   
%endblock PAO.Basis

prinput: ----------------------------------------------------------------------

coor:   Atomic-coordinates input format  =     Cartesian coordinates
coor:                                          (in Angstroms)

siesta: Atomic coordinates (Bohr) and species
siesta:      0.00000   0.00000   0.00000  1        1
siesta:      0.00000   7.87638   0.00000  1        2
siesta:      3.93819   3.93819   0.00000  1        3
siesta:      3.93819  11.81457   0.00000  1        4
siesta:      7.87638   0.00000   0.00000  1        5
siesta:      7.87638   7.87638   0.00000  1        6
siesta:     11.81457   3.93819   0.00000  1        7
siesta:     11.81457  11.81457   0.00000  1        8
siesta:      0.00000   3.93819   3.93819  1        9
siesta:      0.00000  11.81457   3.93819  1       10
siesta:      3.93819   0.00000   3.93819  1       11
siesta:      3.93819   7.87638   3.93819  1       12
siesta:      7.87638   3.93819   3.93819  1       13
siesta:      7.87638  11.81457   3.93819  1       14
siesta:     11.81457   0.00000   3.93819  1       15
siesta:     11.81457   7.87638   3.93819  1       16
siesta:      0.00000   0.00000   7.87638  1       17
siesta:      0.00000   7.87638   7.87638  1       18
siesta:      3.93819   3.93819   7.87638  1       19
siesta:      3.93819  11.81457   7.87638  1       20
siesta:      7.87638   0.00000   7.87638  1       21
siesta:      7.87638   7.87638   7.87638  1       22
siesta:     11.81457   3.93819   7.87638  1       23
siesta:     11.81457  11.81457   7.87638  1       24
siesta:      0.00000   3.93819  11.81457  1       25
siesta:      0.00000  11.81457  11.81457  1       26
siesta:      3.93819   0.00000  11.81457  1       27
siesta:      3.93819   7.87638  11.81457  1       28
siesta:      7.87638   3.93819  11.81457  1       29
siesta:      7.87638  11.81457  11.81457  1       30
siesta:     11.81457   0.00000  11.81457  1       31
siesta:     11.81457   7.87638  11.81457  1       32
siesta:      0.00000   0.00000  15.75276  1       33
siesta:      0.00000   7.87638  15.75276  1       34
siesta:      3.93819   3.93819  15.75276  1       35
siesta:      3.93819  11.81457  15.75276  1       36
siesta:      7.87638   0.00000  15.75276  1       37
siesta:      7.87638   7.87638  15.75276  1       38
siesta:     11.81457   3.93819  15.75276  1       39
siesta:     11.81457  11.81457  15.75276  1       40
siesta:      0.00000   3.93819  19.69095  1       41
siesta:      0.00000  11.81457  19.69095  1       42
siesta:      3.93819   0.00000  19.69095  1       43
siesta:      3.93819   7.87638  19.69095  1       44
siesta:      7.87638   3.93819  19.69095  1       45
siesta:      7.87638  11.81457  19.69095  1       46
siesta:     11.81457   0.00000  19.69095  1       47
siesta:     11.81457   7.87638  19.69095  1       48
siesta:      0.00000   0.00000  40.48173  1       49
siesta:      0.00000   7.87638  40.48173  1       50
siesta:      3.93819   3.93819  40.48173  1       51
siesta:      3.93819  11.81457  40.48173  1       52
siesta:      7.87638   0.00000  40.48173  1       53
siesta:      7.87638   7.87638  40.48173  1       54
siesta:     11.81457   3.93819  40.48173  1       55
siesta:     11.81457  11.81457  40.48173  1       56
siesta:      0.00000   3.93819  44.41992  1       57
siesta:      0.00000  11.81457  44.41992  1       58
siesta:      3.93819   0.00000  44.41992  1       59
siesta:      3.93819   7.87638  44.41992  1       60
siesta:      7.87638   3.93819  44.41992  1       61
siesta:      7.87638  11.81457  44.41992  1       62
siesta:     11.81457   0.00000  44.41992  1       63
siesta:     11.81457   7.87638  44.41992  1       64
siesta:      0.00000   0.00000  48.35811  1       65
siesta:      0.00000   7.87638  48.35811  1       66
siesta:      3.93819   3.93819  48.35811  1       67
siesta:      3.93819  11.81457  48.35811  1       68
siesta:      7.87638   0.00000  48.35811  1       69
siesta:      7.87638   7.87638  48.35811  1       70
siesta:     11.81457   3.93819  48.35811  1       71
siesta:     11.81457  11.81457  48.35811  1       72
siesta:      0.00000   3.93819  52.29630  1       73
siesta:      0.00000  11.81457  52.29630  1       74
siesta:      3.93819   0.00000  52.29630  1       75
siesta:      3.93819   7.87638  52.29630  1       76
siesta:      7.87638   3.93819  52.29630  1       77
siesta:      7.87638  11.81457  52.29630  1       78
siesta:     11.81457   0.00000  52.29630  1       79
siesta:     11.81457   7.87638  52.29630  1       80
siesta:      0.00000   0.00000  56.23449  1       81
siesta:      0.00000   7.87638  56.23449  1       82
siesta:      3.93819   3.93819  56.23449  1       83
siesta:      3.93819  11.81457  56.23449  1       84
siesta:      7.87638   0.00000  56.23449  1       85
siesta:      7.87638   7.87638  56.23449  1       86
siesta:     11.81457   3.93819  56.23449  1       87
siesta:     11.81457  11.81457  56.23449  1       88
siesta:      0.00000   3.93819  60.17268  1       89
siesta:      0.00000  11.81457  60.17268  1       90
siesta:      3.93819   0.00000  60.17268  1       91
siesta:      3.93819   7.87638  60.17268  1       92
siesta:      7.87638   3.93819  60.17268  1       93
siesta:      7.87638  11.81457  60.17268  1       94
siesta:     11.81457   0.00000  60.17268  1       95
siesta:     11.81457   7.87638  60.17268  1       96

siesta: System type = bulk      

initatomlists: Number of atoms, orbitals, and projectors:     96   576  1536

SMEAGOL: ******************* SMEAGOL Simulation parameters ********************
SMEAGOL:
SMEAGOL:       The following are some of the SMEAGOL parameters of the
SMEAGOL:       simulation. A complete list of the parameters used,
SMEAGOL:       including default values, can be found in file fdf.log.
SMEAGOL:
redata: Transport in extended molecule                =      F
redata: # of points in real energy axis integral      =   6000
redata: # of contour points in semi-circle            =     34
redata: # of contour points in line region            =     20
redata: # of poles in the Fermi function              =      5
redata: Initial value of the bias potential           =      0.0000 Ry
redata: Final value of the bias potential             =      0.1000 Ry
redata: # of bias potential points                    =     10
redata: Small imaginary part                          =      0.00010
redata: Lower bound for the contour integral          =     -5.0000 Ry
redata: 1 = Leads with different spin                 =      0
redata: Atom of the lead where bias slope starts      =      1
redata: Atom of the lead where bias slope ends        =     96
redata: # of bulk slices to include in EM             =      1
redata: Calculate transmission coefficients           =      F
redata: Set bulk transversal cell                     =      F
redata: Bulk transversal cell size                    =      3
redata: Write leads H and S matrices at .HSL          =      F
redata: Init transport                                =      F
redata: Force super cell in z direction = 3           =      F
redata: Calculated electronic structure for           =     LR
redata: Write converged DM (at bias/MD selected step) =      F
redata: Hartree Leads Left                            =      0.0000 Bohr
redata: Hartree Leads Right                           =      0.0000 Bohr
redata: Hartree Leads Bottom                          =      0.0000 Ry
redata: Periodic leads in perpendicular directions    =      F
redata: Thresholds at generalized SVD                 =      0.000000001000
redata: Write .orb, .ef and .gHS files                =      F
redata: Write .onlyS files                            =      F
redata: Electron-phonon interaction                   =      F
redata: Invert only central region    =      F
redata: Calculate Forces    =      F
redata: ***********************************************************************

siesta: ******************** SIESTA Simulation parameters *********************
siesta:
siesta:       The following are some of the SIESTA parameters of the
siesta:       simulation. A complete list of the parameters used,
siesta:       including default values, can be found in file fdf.log.
siesta:
redata: Non-Collinear-spin run             =       F
redata: SpinPolarized (Up/Down) run        =       F
redata: Number of spin components          =       1
redata: Long output                        =       F
redata: Number of Atomic Species           =       1
redata: Charge density info will appear in .RHO file
redata: Write Mulliken Pop.                =      NO
redata: Mesh Cutoff                        =     200.0000  Ry
redata: Net charge of the system           =       0.0000 |e|
redata: Max. number of SCF Iter            =     200
redata: Performing Pulay mixing using      =       4 iterations
redata: Mix DM in first SCF step ?         =       T
redata: Write Pulay info on disk?          =       F
redata: Discard 1st Pulay DM after kick    =       F
redata: New DM Mixing Weight               =       0.1000
redata: New DM Occupancy tolerance         =       0.000000000001
redata: No kicks to SCF
redata: DM Mixing Weight for Kicks         =       0.5000
redata: DM Tolerance for SCF               =       0.000100
redata: Require Energy convergence for SCF =       F
redata: DM Energy tolerance for SCF        =       0.000100 eV
redata: Require Harris convergence for SCF =       F
redata: DM Harris energy tolerance for SCF =       0.000100 eV
redata: Using Saved Data (generic)         =       F
redata: Use continuation files for DM      =       T
redata: Neglect nonoverlap interactions    =       F
redata: Method of Calculation              =     Diagonalization
redata: Divide and Conquer                 =       T
redata: Electronic Temperature             =       0.0019  Ry
redata: Fix the spin of the system         =       F
redata: Dynamics option                    =     Verlet MD run
redata: Initial MD time step               =       1
redata: Final MD time step                 =       1
redata: Length of MD time step             =       1.0000  fs
redata: Initial Temperature of MD run      =       0.0000  K
redata: Perform a MD quench                =       F
redata: ***********************************************************************

Total number of electrons:  1056.000000
Total ionic charge:  1056.000000

* ProcessorY, Blocksize:    8   9

k-point displ. along   1 input, could be:     0.00    0.50
k-point displ. along   2 input, could be:     0.00    0.50
 Kpoints in:           12 . Kpoints trimmed:           11

siesta: k-grid: Number of k-points =    11
siesta: k-grid: Cutoff (effective) =    16.672 Ang
siesta: k-grid: Supercell and displacements
siesta: k-grid:    4   0   0      0.000
siesta: k-grid:    0   4   0      0.000
siesta: k-grid:    0   0   1      0.000
siesta: overlap:  rmaxh   veclen  direction
siesta: overlap:  20.0465 15.7528   1
siesta: overlap:  rmaxh   veclen  direction
siesta: overlap:  20.0465 15.7528   2
siesta: overlap:  rmaxh   veclen  direction
siesta: overlap:  20.0465 64.1109   3
Naive supercell factors:     3    3    1

superc: Internal auxiliary supercell:     3 x     3 x     1  =       9
superc: Number of atoms, orbitals, and projectors:    864   5184  13824

* Maximum dynamic memory allocated =     1 MB

siesta:                 ===============================
                            Begin MD step =      1
                        ===============================

superc: Internal auxiliary supercell:     3 x     3 x     1  =       9
superc: Number of atoms, orbitals, and projectors:    864   5184  13824

outcell: Unit cell vectors (Ang):
        8.336000    0.000000    0.000000
        0.000000    8.336000    0.000000
        0.000000    0.000000   33.926000

outcell: Cell vector modules (Ang)   :    8.336000    8.336000   33.926000
outcell: Cell angles (23,13,12) (deg):     90.0000     90.0000     90.0000
outcell: Cell volume (Ang**3)        :   2357.4803
New_DM. Step:     1
Initializing Density Matrix...

InitMesh: MESH =    72 x    72 x   300 =     1555200
InitMesh: Mesh cutoff (required, used) =   200.000   206.182 Ry

* Maximum dynamic memory allocated =    28 MB

stepf: Fermi-Dirac step function

siesta: Program's energy decomposition (eV):
siesta: Ebs     =     -7376.042180
siesta: Eions   =    115680.044384
siesta: Ena     =      6422.662625
siesta: Ekin    =     64683.513912
siesta: Enl     =    -24893.125172
siesta: DEna    =         0.000046
siesta: DUscf   =         0.000000
siesta: DUext   =         0.000000
siesta: Exc     =    -40111.144492
siesta: eta*DQ  =         0.000000
siesta: Emadel  =         0.000000
siesta: Emeta   =         0.000000
siesta: Emolmec =         0.000000
siesta: Ekinion =         0.000000
siesta: Eharris =   -109429.608214
siesta: Etot    =   -109578.137465
siesta: FreeEng =   -109578.137465

siesta: iscf   Eharris(eV)      E_KS(eV)   FreeEng(eV)   dDmax  Ef(eV)
siesta:    1  -109429.6082  -109578.1375  -109578.1375  0.3835 -2.5462
timer: Routine,Calls,Time,% = IterSCF        1     255.200  94.62
elaps: Routine,Calls,Wall,% = IterSCF        1       4.006  94.61
siesta:    2  -109434.2655  -109562.9343  -109563.0007  0.4684 -3.0402
siesta:    3  -109443.4519  -109553.0408  -109553.1055  0.7546 -2.4393
siesta:    4  -109431.4226  -109507.6749  -109507.7174  0.3389 -3.2489
siesta:    5  -109427.3917  -109424.5514  -109424.6078  0.2517 -3.3768
siesta:    6  -109427.1368  -109422.2785  -109422.3392  0.2219 -3.3451
siesta:    7  -109429.4035  -109422.8905  -109422.9512  0.2707 -3.2714
siesta:    8  -109427.0465  -109421.7328  -109421.7913  0.1310 -3.2161
siesta:    9  -109426.7575  -109425.9228  -109425.9769  0.0791 -3.1988
siesta:   10  -109426.7723  -109426.5437  -109426.5977  0.0575 -3.1275
siesta:   11  -109426.9219  -109428.2021  -109428.2597  0.0827 -3.1703
siesta:   12  -109427.1425  -109429.0254  -109429.0759  0.0994 -3.1091
siesta:   13  -109426.7113  -109428.4277  -109428.4762  0.0373 -3.1195
siesta:   14  -109426.7110  -109428.2482  -109428.3027  0.0315 -3.1314
siesta:   15  -109426.6958  -109427.7555  -109427.8097  0.0361 -3.1301
siesta:   16  -109426.7003  -109427.5557  -109427.6142  0.0248 -3.1498
siesta:   17  -109426.6924  -109426.7187  -109426.7734  0.0212 -3.1500
siesta:   18  -109426.9548  -109426.3289  -109426.3853  0.0598 -3.1601
siesta:   19  -109426.6772  -109426.4167  -109426.4687  0.0060 -3.1562
siesta:   20  -109426.6764  -109426.2650  -109426.3220  0.0022 -3.1591
siesta:   21  -109426.6776  -109426.2619  -109426.3193  0.0028 -3.1622
siesta:   22  -109426.6764  -109426.2579  -109426.3148  0.0037 -3.1597
siesta:   23  -109426.6780  -109426.4929  -109426.5507  0.0055 -3.1588
siesta:   24  -109426.6771  -109426.4579  -109426.5151  0.0032 -3.1606
siesta:   25  -109426.6764  -109426.5717  -109426.6291  0.0012 -3.1593
siesta:   26  -109426.6764  -109426.6119  -109426.6692  0.0011 -3.1595
siesta:   27  -109426.6763  -109426.6224  -109426.6796  0.0006 -3.1588
siesta:   28  -109426.6761  -109426.6440  -109426.7013  0.0002 -3.1589
siesta:   29  -109426.6761  -109426.6461  -109426.7034  0.0003 -3.1589
siesta:   30  -109426.6763  -109426.6652  -109426.7225  0.0002 -3.1589
siesta:   31  -109426.6766  -109426.6701  -109426.7274  0.0001 -3.1591
siesta:   32  -109426.6765  -109426.6729  -109426.7301  0.0001 -3.1590
siesta:   33  -109426.6766  -109426.6738  -109426.7311  0.0001 -3.1591

siesta: E_KS(eV) =          -109426.6758

siesta: E_KS - E_eggbox =   -109426.6758

siesta: Atomic forces (eV/Ang):
     1    0.000022    0.000024   -0.027529
     2    0.000004   -0.000000   -0.027530
     3    0.000006   -0.000000   -0.027526
     4   -0.000002   -0.000003   -0.027523
     5    0.000003    0.000011   -0.027531
     6    0.000005    0.000000   -0.027528
     7    0.000005    0.000000   -0.027528
     8   -0.000003   -0.000003   -0.027523
     9    0.000029    0.000000   -0.015244
    10    0.000014    0.000005   -0.015247
    11    0.000005    0.000038   -0.015247
    12    0.000010    0.000001   -0.015245
    13    0.000008   -0.000000   -0.015245
    14    0.000000    0.000004   -0.015252
    15    0.000013    0.000026   -0.015254
    16    0.000008   -0.000000   -0.015254
    17    0.000023    0.000032    0.795204
    18    0.000030   -0.000001    0.795209
    19    0.000001    0.000000    0.795229
    20   -0.000002   -0.000007    0.795213
    21    0.000004    0.000036    0.795215
    22    0.000002   -0.000000    0.795230
    23   -0.000007    0.000000    0.795216
    24   -0.000010   -0.000012    0.795209
    25    0.000038   -0.000001   -0.413326
    26    0.000009    0.000017   -0.413341
    27    0.000014    0.000030   -0.413321
    28    0.000023   -0.000000   -0.413330
    29    0.000023   -0.000000   -0.413331
    30    0.000003    0.000018   -0.413346
    31    0.000026    0.000026   -0.413329
    32    0.000030    0.000000   -0.413337
    33    0.000038    0.000053    0.288377
    34    0.000051   -0.000001    0.288387
    35    0.000024    0.000000    0.288402
    36    0.000002    0.000012    0.288377
    37    0.000007    0.000049    0.288392
    38    0.000026    0.000001    0.288401
    39    0.000030    0.000000    0.288381
    40    0.000004    0.000001    0.288367
    41    0.000006   -0.000000   -0.444773
    42   -0.000001   -0.000010   -0.444761
    43    0.000002    0.000014   -0.444782
    44    0.000003   -0.000000   -0.444787
    45    0.000002    0.000001   -0.444787
    46   -0.000003   -0.000009   -0.444767
    47   -0.000004    0.000008   -0.444773
    48   -0.000009   -0.000000   -0.444776
    49    0.000008    0.000012   -0.334379
    50    0.000010   -0.000000   -0.334385
    51    0.000010   -0.000000   -0.334381
    52    0.000003    0.000000   -0.334383
    53    0.000007    0.000015   -0.334382
    54    0.000009    0.000000   -0.334385
    55    0.000008   -0.000000   -0.334386
    56    0.000002    0.000002   -0.334385
    57    0.000015    0.000001    0.934831
    58    0.000010    0.000003    0.934826
    59    0.000002    0.000028    0.934832
    60    0.000002    0.000000    0.934820
    61    0.000001    0.000000    0.934822
    62   -0.000004   -0.000003    0.934825
    63    0.000009    0.000023    0.934826
    64   -0.000005    0.000000    0.934822
    65    0.000039    0.000046   -0.494300
    66    0.000037    0.000001   -0.494292
    67    0.000019   -0.000000   -0.494298
    68   -0.000001    0.000009   -0.494314
    69    0.000008    0.000036   -0.494295
    70    0.000018    0.000000   -0.494297
    71    0.000023    0.000001   -0.494309
    72   -0.000002   -0.000000   -0.494321
    73    0.000037    0.000000    0.431834
    74    0.000011    0.000003    0.431830
    75    0.000011    0.000036    0.431838
    76    0.000021    0.000000    0.431829
    77    0.000022    0.000001    0.431828
    78    0.000001   -0.000007    0.431825
    79    0.000003    0.000030    0.431836
    80    0.000008    0.000001    0.431827
    81    0.000032    0.000046   -0.757744
    82    0.000040    0.000001   -0.757750
    83    0.000010    0.000000   -0.757744
    84   -0.000001   -0.000001   -0.757758
    85    0.000008    0.000046   -0.757739
    86    0.000008    0.000001   -0.757745
    87    0.000006   -0.000000   -0.757746
    88   -0.000005   -0.000002   -0.757765
    89    0.000020    0.000000    0.030946
    90   -0.000000    0.000019    0.030929
    91    0.000005    0.000021    0.030951
    92    0.000012    0.000001    0.030939
    93    0.000012   -0.000000    0.030941
    94   -0.000006    0.000028    0.030930
    95    0.000023    0.000022    0.030946
    96    0.000035    0.000000    0.030937
----------------------------------------
   Tot    0.001058    0.000782   -0.048978
----------------------------------------
   Max    0.934832
   Res    0.292350    sqrt( Sum f_i^2 / 3N )
----------------------------------------
   Max    0.934832    constrained

Stress-tensor-Voigt (kbar):      -11.78      -11.78      -27.08       -0.00       -0.00       -0.00
(Free)E + p*V (eV/cell)  -109401.8980
Target enthalpy (eV/cell)  -109426.7330

siesta: Stress tensor (static) (eV/Ang**3):
        -0.007352   -0.000000   -0.000000
        -0.000000   -0.007352   -0.000000
        -0.000000   -0.000000   -0.016899

siesta: Pressure (static):         16.87844028  kBar

siesta: Stress tensor (total) (eV/Ang**3):
        -0.007352   -0.000000   -0.000000
        -0.000000   -0.007352   -0.000000
        -0.000000   -0.000000   -0.016899

siesta: Pressure (total):         16.87844028  kBar

siesta: Temp_ion =       0.000 K

* Maximum dynamic memory allocated =    30 MB

coxmol: Writing XMOL coordinates into file dft_wfn.xyz                                                     

siesta: Program's energy decomposition (eV):
siesta: Ebs     =     -8088.526235
siesta: Eions   =    115680.044384
siesta: Ena     =      6422.662625
siesta: Ekin    =     64393.366213
siesta: Enl     =    -24596.303131
siesta: DEna    =        92.068658
siesta: DUscf   =         1.466645
siesta: DUext   =         0.000000
siesta: Exc     =    -40059.892384
siesta: eta*DQ  =         0.000000
siesta: Emadel  =         0.000000
siesta: Emeta   =         0.000000
siesta: Emolmec =         0.000000
siesta: Ekinion =         0.000000
siesta: Eharris =   -109426.676569
siesta: Etot    =   -109426.675758
siesta: FreeEng =   -109426.733036

siesta: Final energy (eV):
siesta:  Band Struct. =   -8088.526235
siesta:       Kinetic =   64393.366213
siesta:       Hartree =  295013.477948
siesta:    Ext. field =       0.000000
siesta:   Exch.-corr. =  -40059.892384
siesta:  Ion-electron = -640439.017660
siesta:       Ion-ion =  211665.390125
siesta:       Ekinion =       0.000000
siesta:         Total = -109426.675758

siesta: Atomic forces (eV/Ang):
siesta:      1    0.000022    0.000024   -0.027529
siesta:      2    0.000004   -0.000000   -0.027530
siesta:      3    0.000006   -0.000000   -0.027526
siesta:      4   -0.000002   -0.000003   -0.027523
siesta:      5    0.000003    0.000011   -0.027531
siesta:      6    0.000005    0.000000   -0.027528
siesta:      7    0.000005    0.000000   -0.027528
siesta:      8   -0.000003   -0.000003   -0.027523
siesta:      9    0.000029    0.000000   -0.015244
siesta:     10    0.000014    0.000005   -0.015247
siesta:     11    0.000005    0.000038   -0.015247
siesta:     12    0.000010    0.000001   -0.015245
siesta:     13    0.000008   -0.000000   -0.015245
siesta:     14    0.000000    0.000004   -0.015252
siesta:     15    0.000013    0.000026   -0.015254
siesta:     16    0.000008   -0.000000   -0.015254
siesta:     17    0.000023    0.000032    0.795204
siesta:     18    0.000030   -0.000001    0.795209
siesta:     19    0.000001    0.000000    0.795229
siesta:     20   -0.000002   -0.000007    0.795213
siesta:     21    0.000004    0.000036    0.795215
siesta:     22    0.000002   -0.000000    0.795230
siesta:     23   -0.000007    0.000000    0.795216
siesta:     24   -0.000010   -0.000012    0.795209
siesta:     25    0.000038   -0.000001   -0.413326
siesta:     26    0.000009    0.000017   -0.413341
siesta:     27    0.000014    0.000030   -0.413321
siesta:     28    0.000023   -0.000000   -0.413330
siesta:     29    0.000023   -0.000000   -0.413331
siesta:     30    0.000003    0.000018   -0.413346
siesta:     31    0.000026    0.000026   -0.413329
siesta:     32    0.000030    0.000000   -0.413337
siesta:     33    0.000038    0.000053    0.288377
siesta:     34    0.000051   -0.000001    0.288387
siesta:     35    0.000024    0.000000    0.288402
siesta:     36    0.000002    0.000012    0.288377
siesta:     37    0.000007    0.000049    0.288392
siesta:     38    0.000026    0.000001    0.288401
siesta:     39    0.000030    0.000000    0.288381
siesta:     40    0.000004    0.000001    0.288367
siesta:     41    0.000006   -0.000000   -0.444773
siesta:     42   -0.000001   -0.000010   -0.444761
siesta:     43    0.000002    0.000014   -0.444782
siesta:     44    0.000003   -0.000000   -0.444787
siesta:     45    0.000002    0.000001   -0.444787
siesta:     46   -0.000003   -0.000009   -0.444767
siesta:     47   -0.000004    0.000008   -0.444773
siesta:     48   -0.000009   -0.000000   -0.444776
siesta:     49    0.000008    0.000012   -0.334379
siesta:     50    0.000010   -0.000000   -0.334385
siesta:     51    0.000010   -0.000000   -0.334381
siesta:     52    0.000003    0.000000   -0.334383
siesta:     53    0.000007    0.000015   -0.334382
siesta:     54    0.000009    0.000000   -0.334385
siesta:     55    0.000008   -0.000000   -0.334386
siesta:     56    0.000002    0.000002   -0.334385
siesta:     57    0.000015    0.000001    0.934831
siesta:     58    0.000010    0.000003    0.934826
siesta:     59    0.000002    0.000028    0.934832
siesta:     60    0.000002    0.000000    0.934820
siesta:     61    0.000001    0.000000    0.934822
siesta:     62   -0.000004   -0.000003    0.934825
siesta:     63    0.000009    0.000023    0.934826
siesta:     64   -0.000005    0.000000    0.934822
siesta:     65    0.000039    0.000046   -0.494300
siesta:     66    0.000037    0.000001   -0.494292
siesta:     67    0.000019   -0.000000   -0.494298
siesta:     68   -0.000001    0.000009   -0.494314
siesta:     69    0.000008    0.000036   -0.494295
siesta:     70    0.000018    0.000000   -0.494297
siesta:     71    0.000023    0.000001   -0.494309
siesta:     72   -0.000002   -0.000000   -0.494321
siesta:     73    0.000037    0.000000    0.431834
siesta:     74    0.000011    0.000003    0.431830
siesta:     75    0.000011    0.000036    0.431838
siesta:     76    0.000021    0.000000    0.431829
siesta:     77    0.000022    0.000001    0.431828
siesta:     78    0.000001   -0.000007    0.431825
siesta:     79    0.000003    0.000030    0.431836
siesta:     80    0.000008    0.000001    0.431827
siesta:     81    0.000032    0.000046   -0.757744
siesta:     82    0.000040    0.000001   -0.757750
siesta:     83    0.000010    0.000000   -0.757744
siesta:     84   -0.000001   -0.000001   -0.757758
siesta:     85    0.000008    0.000046   -0.757739
siesta:     86    0.000008    0.000001   -0.757745
siesta:     87    0.000006   -0.000000   -0.757746
siesta:     88   -0.000005   -0.000002   -0.757765
siesta:     89    0.000020    0.000000    0.030946
siesta:     90   -0.000000    0.000019    0.030929
siesta:     91    0.000005    0.000021    0.030951
siesta:     92    0.000012    0.000001    0.030939
siesta:     93    0.000012   -0.000000    0.030941
siesta:     94   -0.000006    0.000028    0.030930
siesta:     95    0.000023    0.000022    0.030946
siesta:     96    0.000035    0.000000    0.030937
siesta: ----------------------------------------
siesta:    Tot    0.001058    0.000782   -0.048978

siesta: Stress tensor (static) (eV/Ang**3):
siesta:    -0.007352   -0.000000   -0.000000
siesta:    -0.000000   -0.007352   -0.000000
siesta:    -0.000000   -0.000000   -0.016899

siesta: Cell volume =       2357.480286 Ang**3

siesta: Pressure (static):
siesta:                Solid            Molecule  Units
siesta:           0.00011474          0.00022422  Ry/Bohr**3
siesta:           0.01053458          0.02058684  eV/Ang**3
siesta:          16.87844028         32.98410845  kBar
(Free)E+ p_basis*V_orbitals  =     -109390.226990
(Free)Eharris+ p_basis*V_orbitals  =     -109390.229746

* Maximum dynamic memory allocated : Node    0 =    30 MB
* Maximum dynamic memory allocated : Node    1 =    30 MB
* Maximum dynamic memory allocated : Node    2 =    27 MB
* Maximum dynamic memory allocated : Node    3 =    22 MB
* Maximum dynamic memory allocated : Node    4 =    24 MB
* Maximum dynamic memory allocated : Node    5 =    29 MB
* Maximum dynamic memory allocated : Node    6 =    30 MB
* Maximum dynamic memory allocated : Node    7 =    30 MB
* Maximum dynamic memory allocated : Node    8 =    30 MB
* Maximum dynamic memory allocated : Node    9 =    30 MB
* Maximum dynamic memory allocated : Node   10 =    27 MB
* Maximum dynamic memory allocated : Node   11 =    22 MB
* Maximum dynamic memory allocated : Node   12 =    24 MB
* Maximum dynamic memory allocated : Node   13 =    29 MB
* Maximum dynamic memory allocated : Node   14 =    30 MB
* Maximum dynamic memory allocated : Node   15 =    30 MB
* Maximum dynamic memory allocated : Node   16 =    30 MB
* Maximum dynamic memory allocated : Node   17 =    30 MB
* Maximum dynamic memory allocated : Node   18 =    27 MB
* Maximum dynamic memory allocated : Node   19 =    22 MB
* Maximum dynamic memory allocated : Node   20 =    24 MB
* Maximum dynamic memory allocated : Node   21 =    29 MB
* Maximum dynamic memory allocated : Node   22 =    29 MB
* Maximum dynamic memory allocated : Node   23 =    29 MB
* Maximum dynamic memory allocated : Node   24 =    30 MB
* Maximum dynamic memory allocated : Node   25 =    30 MB
* Maximum dynamic memory allocated : Node   26 =    27 MB
* Maximum dynamic memory allocated : Node   27 =    22 MB
* Maximum dynamic memory allocated : Node   28 =    24 MB
* Maximum dynamic memory allocated : Node   29 =    29 MB
* Maximum dynamic memory allocated : Node   30 =    29 MB
* Maximum dynamic memory allocated : Node   31 =    29 MB
* Maximum dynamic memory allocated : Node   32 =    28 MB
* Maximum dynamic memory allocated : Node   33 =    28 MB
* Maximum dynamic memory allocated : Node   34 =    25 MB
* Maximum dynamic memory allocated : Node   35 =    21 MB
* Maximum dynamic memory allocated : Node   36 =    23 MB
* Maximum dynamic memory allocated : Node   37 =    28 MB
* Maximum dynamic memory allocated : Node   38 =    28 MB
* Maximum dynamic memory allocated : Node   39 =    28 MB
* Maximum dynamic memory allocated : Node   40 =    28 MB
* Maximum dynamic memory allocated : Node   41 =    28 MB
* Maximum dynamic memory allocated : Node   42 =    26 MB
* Maximum dynamic memory allocated : Node   43 =    22 MB
* Maximum dynamic memory allocated : Node   44 =    24 MB
* Maximum dynamic memory allocated : Node   45 =    28 MB
* Maximum dynamic memory allocated : Node   46 =    28 MB
* Maximum dynamic memory allocated : Node   47 =    28 MB
* Maximum dynamic memory allocated : Node   48 =    29 MB
* Maximum dynamic memory allocated : Node   49 =    28 MB
* Maximum dynamic memory allocated : Node   50 =    26 MB
* Maximum dynamic memory allocated : Node   51 =    22 MB
* Maximum dynamic memory allocated : Node   52 =    24 MB
* Maximum dynamic memory allocated : Node   53 =    28 MB
* Maximum dynamic memory allocated : Node   54 =    28 MB
* Maximum dynamic memory allocated : Node   55 =    28 MB
* Maximum dynamic memory allocated : Node   56 =    29 MB
* Maximum dynamic memory allocated : Node   57 =    28 MB
* Maximum dynamic memory allocated : Node   58 =    26 MB
* Maximum dynamic memory allocated : Node   59 =    22 MB
* Maximum dynamic memory allocated : Node   60 =    24 MB
* Maximum dynamic memory allocated : Node   61 =    28 MB
* Maximum dynamic memory allocated : Node   62 =    28 MB
* Maximum dynamic memory allocated : Node   63 =    28 MB

* Maximum memory occured during matrixMtoO                    

timer: CPU execution times:
timer:  Routine       Calls   Time/call    Tot.time        %
timer:  siesta            1    6002.851    6002.851   100.00
timer:  Setup             1       9.556       9.556     0.16
timer:  bands             1       0.032       0.032     0.00
timer:  writewave         1       0.089       0.089     0.00
timer:  KSV_init          1       0.013       0.013     0.00
timer:  IterMD            1    5978.725    5978.725    99.60
timer:  hsparse           1       0.805       0.805     0.01
timer:  overlap           1       2.588       2.588     0.04
timer:  IterSCF          33     179.562    5925.534    98.71
timer:  kinefsm           2       1.230       2.461     0.04
timer:  nlefsm            2      17.491      34.982     0.58
timer:  DHSCF            35      13.799     482.968     8.05
timer:  DHSCF1            1       4.015       4.015     0.07
timer:  DHSCF2            1      34.557      34.557     0.58
timer:  REORD           286       0.002       0.538     0.01
timer:  POISON           36       0.233       8.371     0.14
timer:  DHSCF3           35      12.348     432.186     7.20
timer:  rhoofd           35       2.762      96.683     1.61
timer:  cellXC           35       0.270       9.435     0.16
timer:  vmat             34       7.143     242.851     4.05
timer:  MolMec            2       0.001       0.002     0.00
timer:  diagon           33     163.640    5400.111    89.96
timer:  c-eigval        363       6.742    2447.515    40.77
timer:  c-buildHS       363       0.009       3.174     0.05
timer:  cdiag           726       6.959    5052.401    84.17
timer:  cdiag1          726       0.456     330.836     5.51
timer:  cdiag2          726       2.522    1831.049    30.50
timer:  cdiag3          726       3.710    2693.692    44.87
timer:  cdiag4          726       0.229     166.292     2.77
timer:  c-eigvec        363       7.192    2610.682    43.49
timer:  c-buildD        363       0.929     337.395     5.62
timer:  DHSCF4            1      11.871      11.871     0.20
timer:  dfscf             1       6.442       6.442     0.11
timer:  overfsm           1       0.134       0.134     0.00
timer:  optical           1       1.985       1.985     0.03
  

elaps: ELAPSED times:
elaps:  Routine       Calls   Time/call    Tot.time        %
elaps:  siesta            1      94.166      94.166   100.00
elaps:  Setup             1       0.150       0.150     0.16
elaps:  bands             1       0.001       0.001     0.00
elaps:  writewave         1       0.001       0.001     0.00
elaps:  KSV_init          1       0.000       0.000     0.00
elaps:  IterMD            1      93.786      93.786    99.59
elaps:  hsparse           1       0.013       0.013     0.01
elaps:  overlap           1       0.042       0.042     0.04
elaps:  IterSCF          33       2.817      92.954    98.71
elaps:  kinefsm           2       0.020       0.040     0.04
elaps:  nlefsm            2       0.339       0.677     0.72
elaps:  DHSCF            35       0.218       7.618     8.09
elaps:  DHSCF1            1       0.066       0.066     0.07
elaps:  DHSCF2            1       0.538       0.538     0.57
elaps:  REORD           286       0.000       0.010     0.01
elaps:  POISON           36       0.004       0.134     0.14
elaps:  DHSCF3           35       0.193       6.769     7.19
elaps:  rhoofd           35       0.072       2.525     2.68
elaps:  cellXC           35       0.004       0.147     0.16
elaps:  vmat             34       0.112       3.803     4.04
elaps:  MolMec            2       0.000       0.000     0.00
elaps:  diagon           33       2.570      84.821    90.07
elaps:  c-eigval        363       0.106      38.404    40.78
elaps:  c-buildHS       363       0.000       0.062     0.07
elaps:  cdiag           726       0.109      79.169    84.07
elaps:  cdiag1          726       0.007       5.433     5.77
elaps:  cdiag2          726       0.039      28.341    30.10
elaps:  cdiag3          726       0.058      42.444    45.07
elaps:  cdiag4          726       0.004       2.589     2.75
elaps:  c-eigvec        363       0.113      40.879    43.41
elaps:  c-buildD        363       0.015       5.311     5.64
elaps:  DHSCF4            1       0.239       0.239     0.25
elaps:  dfscf             1       0.141       0.141     0.15
elaps:  overfsm           1       0.002       0.002     0.00
elaps:  optical           1       0.000       0.000     0.00
  
>> End of run:   3-NOV-2023  11:51:22
