Siesta Version: ismeagol.1.0
Architecture  : thomas-intel2017update1-intelmpi-mkl
Compiler flags: mpif90 -O2 -fPIC -g -ftree-vectorize -xHost
PARALLEL version

* Running on   64 nodes in parallel
>> Start of run:   3-NOV-2023  11:54:42

                           ***********************       
                           *  WELCOME TO SIESTA  *       
                           ***********************       

reinit: Reading from standard input
************************** Dump of input data file ****************************
SystemName                   4V          # Descriptive name of the system
SystemLabel                     4V               # Short name for naming files
NumberOfAtoms    96
NumberOfSpecies                 1               # Number of species
PAO.BasisType                   split
%block ChemicalSpeciesLabel
1 79 Au
%endblock ChemicalSpeciesLabel
%block PAO.Basis
  Au  2
n=6  0  1
6.500
1.00
n=5  2  1
5.850
1.00
%endblock PAO.Basis
%block PS.lmax
 Au   3
%endblock PS.lmax
LatticeConstant 1.000 Ang
%block LatticeVectors
   8.336     0.000   0.000        1
  0.000    8.336     0.000   1
  0.000   0.000    33.926  1
%endblock LatticeVectors
AtomicCoordinatesFormat Ang
%block AtomicCoordinatesAndAtomicSpecies
0.0 0.0 0.0 1 Au
0.0 4.168 0.0 1 Au
2.084 2.084 0.0 1 Au
2.084 6.252 0.0 1 Au
4.168 0.0 0.0 1 Au
4.168 4.168 0.0 1 Au
6.252 2.084 0.0 1 Au
6.252 6.252 0.0 1 Au
0.0 2.084 2.084 1 Au
0.0 6.252 2.084 1 Au
2.084 0.0 2.084 1 Au
2.084 4.168 2.084 1 Au
4.168 2.084 2.084 1 Au
4.168 6.252 2.084 1 Au
6.252 0.0 2.084 1 Au
6.252 4.168 2.084 1 Au
0.0 0.0 4.168 1 Au
0.0 4.168 4.168 1 Au
2.084 2.084 4.168 1 Au
2.084 6.252 4.168 1 Au
4.168 0.0 4.168 1 Au
4.168 4.168 4.168 1 Au
6.252 2.084 4.168 1 Au
6.252 6.252 4.168 1 Au
0.0 2.084 6.252 1 Au
0.0 6.252 6.252 1 Au
2.084 0.0 6.252 1 Au
2.084 4.168 6.252 1 Au
4.168 2.084 6.252 1 Au
4.168 6.252 6.252 1 Au
6.252 0.0 6.252 1 Au
6.252 4.168 6.252 1 Au
0.0 0.0 8.336 1 Au
0.0 4.168 8.336 1 Au
2.084 2.084 8.336 1 Au
2.084 6.252 8.336 1 Au
4.168 0.0 8.336 1 Au
4.168 4.168 8.336 1 Au
6.252 2.084 8.336 1 Au
6.252 6.252 8.336 1 Au
0.0 2.084 10.42 1 Au
0.0 6.252 10.42 1 Au
2.084 0.0 10.42 1 Au
2.084 4.168 10.42 1 Au
4.168 2.084 10.42 1 Au
4.168 6.252 10.42 1 Au
6.252 0.0 10.42 1 Au
6.252 4.168 10.42 1 Au
0.0 0.0 21.422 1 Au
0.0 4.168 21.422 1 Au
2.084 2.084 21.422 1 Au
2.084 6.252 21.422 1 Au
4.168 0.0 21.422 1 Au
4.168 4.168 21.422 1 Au
6.252 2.084 21.422 1 Au
6.252 6.252 21.422 1 Au
0.0 2.084 23.506 1 Au
0.0 6.252 23.506 1 Au
2.084 0.0 23.506 1 Au
2.084 4.168 23.506 1 Au
4.168 2.084 23.506 1 Au
4.168 6.252 23.506 1 Au
6.252 0.0 23.506 1 Au
6.252 4.168 23.506 1 Au
0.0 0.0 25.59 1 Au
0.0 4.168 25.59 1 Au
2.084 2.084 25.59 1 Au
2.084 6.252 25.59 1 Au
4.168 0.0 25.59 1 Au
4.168 4.168 25.59 1 Au
6.252 2.084 25.59 1 Au
6.252 6.252 25.59 1 Au
0.0 2.084 27.674 1 Au
0.0 6.252 27.674 1 Au
2.084 0.0 27.674 1 Au
2.084 4.168 27.674 1 Au
4.168 2.084 27.674 1 Au
4.168 6.252 27.674 1 Au
6.252 0.0 27.674 1 Au
6.252 4.168 27.674 1 Au
0.0 0.0 29.758 1 Au
0.0 4.168 29.758 1 Au
2.084 2.084 29.758 1 Au
2.084 6.252 29.758 1 Au
4.168 0.0 29.758 1 Au
4.168 4.168 29.758 1 Au
6.252 2.084 29.758 1 Au
6.252 6.252 29.758 1 Au
0.0 2.084 31.842 1 Au
0.0 6.252 31.842 1 Au
2.084 0.0 31.842 1 Au
2.084 4.168 31.842 1 Au
4.168 2.084 31.842 1 Au
4.168 6.252 31.842 1 Au
6.252 0.0 31.842 1 Au
6.252 4.168 31.842 1 Au
%endblock AtomicCoordinatesAndAtomicSpecies 	
%block kgrid_Monkhorst_Pack
  4   0   0     0.0
  0   4   0     0.0
  0   0   1     0.0
%endblock kgrid_Monkhorst_Pack
xc.functional		LDA		# 'LDA', 'GGA'
xc.authors 	 		CA		# 'CA'='PZ', 'PW92', 'PBE'
SpinPolarized			F		# 'T', 'F'		
#FixSpin           F
#TotalSpin        0.0
NonCollinearSpin		F		# 'T', 'F'
MeshCutoff 	 		    200 Ry		# Equivalent plane wave cutoff for the grid
MaxSCFIterations		500
DM.MixingWeight			0.1
DM.NumberPulay			4	# Pulay convergency accelerator
DM.MixSCF1			    T
MixHamiltonian      T
DM.PulayOnFile			F		# Store in memory ('F') or in files ('T')
#DM.NumberKick         30
#DM.KickMixingWeight   0.1
DM.Tolerance 		1.0E-4
NeglNonOverlapInt		F		# 'F'=do not neglect
SolutionMethod			diagon
ElectronicTemperature		300 K		# Default value
DM.UseSaveDM 			T
#MD.UseSaveXV			T
#MD.UseSaveCG			T
WriteForces      T
WriteCoorXmol			T		# Write Atoms coordinates
SaveElectrostaticPotential      T
#SaveHS				T		# Save the Hamiltonian and Overlap matrices
SaveRho				T		# Save the valence pseudocharge density
#SaveDeltaRho			T
#WriteDenchar			T		# Write Denchar output
WriteMullikenPop		0 #write mulliken population of aromic and orbital charges
#-----
#smeagol
#-----
# Perform a transport calculation
EMTransport              T
# Set number of energy points for integrals
NEnergReal               64
# Set bias range
VInitial             4 eV
VFinal               4 eV
NIVPoints                0
# General variables
Delta                    1e-4
EnergLowestBound    -100.0 eV
# Print transmission coefficient
TrCoefficients           T
InitTransmRange      -10.0 eV
FinalTransmRange      10.0 eV
NTransmPoints            800
TRC.EMDOS                T
TRC.LeadsDOS             T
# Matching of Hartree potential with the leads
HartreeLeadsBottom  -15.24963856 eV
%block SaveBiasSteps
 0
%endblock SaveBiasSteps
************************** End of input data file *****************************

reinit: -----------------------------------------------------------------------
reinit: System Name: 4V
reinit: -----------------------------------------------------------------------
reinit: System Label: 4V                                                          
reinit: -----------------------------------------------------------------------

initatom: Reading input for the pseudopotentials and atomic orbitals ----------
 Species number:            1  Label: Au Atomic number:          79
Ground state valence configuration:   6s01  5d10
Reading pseudopotential information in formatted form from Au.psf

Pseudopotential generated from a relativistic atomic calculation
There are spin-orbit pseudopotentials available
Spin-orbit interaction is not included in this calculation

Valence configuration for pseudopotential generation:
6s( 1.00) rc: 2.18
6p( 0.00) rc: 2.47
5d(10.00) rc: 1.79
5f( 0.00) rc: 2.00
relmxkb: Read Max KB Ang. Momentum=    3 for species Au
 Warning: Empty PAO shell. l =           1
 Will have a KB projector anyway...

<basis_specs>
===============================================================================
Au                   Z=  79    Mass=  196.97        Charge= 0.17977+309
Lmxo=2 Lmxkb= 3    BasisType=split      Semic=F
L=0  Nsemic=0  Cnfigmx=6
          n=1  nzeta=1  polorb=0
            splnorm:   0.15000    
               vcte:    0.0000    
               rinn:    0.0000    
                rcs:    6.5000    
            lambdas:    1.0000    
L=1  Nsemic=0  Cnfigmx=6
L=2  Nsemic=0  Cnfigmx=5
          n=1  nzeta=1  polorb=0
            splnorm:   0.15000    
               vcte:    0.0000    
               rinn:    0.0000    
                rcs:    5.8500    
            lambdas:    1.0000    
-------------------------------------------------------------------------------
L=0  Nkbl=1  erefs: 0.17977+309
L=1  Nkbl=1  erefs: 0.17977+309
L=2  Nkbl=1  erefs: 0.17977+309
L=3  Nkbl=1  erefs: 0.17977+309
===============================================================================
</basis_specs>

atom: Called for Au                    (Z =  79)

read_vps: Pseudopotential generation method:
read_vps: ATM3      Troullier-Martins                       
Total valence charge:   11.00000

read_vps: Pseudopotential includes a core correction:
read_vps: Pseudo-core for xc-correction

xc_check: Exchange-correlation functional:
xc_check: Ceperley-Alder
V l=0 = -2*Zval/r beyond r=  2.9833
V l=1 = -2*Zval/r beyond r=  2.9833
V l=2 = -2*Zval/r beyond r=  2.9833
V l=3 = -2*Zval/r beyond r=  2.9833
All V_l potentials equal beyond r=  2.4425
This should be close to max(r_c) in ps generation
All pots = -2*Zval/r beyond r=  2.9833

VLOCAL1: 99.0% of the norm of Vloc inside      7.276 Ry
VLOCAL1: 99.9% of the norm of Vloc inside     16.582 Ry
atom: Maximum radius for 4*pi*r*r*local-pseudopot. charge    2.94627
atom: Maximum radius for r*vlocal+2*Zval:    2.60007
GHOST: No ghost state for L =  0
GHOST: No ghost state for L =  1
GHOST: No ghost state for L =  2
GHOST: No ghost state for L =  3

KBgen: Kleinman-Bylander projectors: 
   l= 0   rc=  3.175745   el= -0.445638   Ekb=  5.072790   kbcos=  0.276607
   l= 1   rc=  3.256140   el= -0.066324   Ekb=  2.703235   kbcos=  0.227171
   l= 2   rc=  3.020861   el= -0.526103   Ekb= -4.704026   kbcos= -0.643795
   l= 3   rc=  3.466145   el=  0.003438   Ekb= -2.516122   kbcos= -0.010529

KBgen: Total number of  Kleinman-Bylander projectors:   16
atom: -------------------------------------------------------------------------

atom: SANKEY-TYPE ORBITALS:

SPLIT: Orbitals with angular momentum L= 0

SPLIT: Basis orbitals for state 6s

   izeta = 1
                 lambda =    1.000000
                     rc =    6.557093
                 energy =   -0.435455
                kinetic =    0.389259
    potential(screened) =   -0.824714
       potential(ionic) =   -8.467175

SPLIT: Orbitals with angular momentum L= 2

SPLIT: Basis orbitals for state 5d

   izeta = 1
                 lambda =    1.000000
                     rc =    5.933100
                 energy =   -0.524775
                kinetic =    4.913203
    potential(screened) =   -5.437978
       potential(ionic) =  -15.883506
atom: Total number of Sankey-type orbitals:  6

atm_pop: Valence configuration (for local Pseudopot. screening):
 6s( 1.00)                                                            
 6p( 0.00)                                                            
 5d(10.00)                                                            
Vna: chval, zval:   11.00000  11.00000

Vna:  Cut-off radius for the neutral-atom potential:   6.557093
comcore: Pseudo-core radius Rcore=  4.027091

atom: _________________________________________________________________________

prinput: Basis input ----------------------------------------------------------

PAO.BasisType split     

%block ChemicalSpeciesLabel
    1   79 Au                      # Species index, atomic number, species label
%endblock ChemicalSpeciesLabel

%block PAO.Basis                 # Define Basis set
Au                    2                    # Species label, number of l-shells
 n=6   0   1                         # n, l, Nzeta 
   6.557   
   1.000   
 n=5   2   1                         # n, l, Nzeta 
   5.933   
   1.000   
%endblock PAO.Basis

prinput: ----------------------------------------------------------------------

coor:   Atomic-coordinates input format  =     Cartesian coordinates
coor:                                          (in Angstroms)

siesta: Atomic coordinates (Bohr) and species
siesta:      0.00000   0.00000   0.00000  1        1
siesta:      0.00000   7.87638   0.00000  1        2
siesta:      3.93819   3.93819   0.00000  1        3
siesta:      3.93819  11.81457   0.00000  1        4
siesta:      7.87638   0.00000   0.00000  1        5
siesta:      7.87638   7.87638   0.00000  1        6
siesta:     11.81457   3.93819   0.00000  1        7
siesta:     11.81457  11.81457   0.00000  1        8
siesta:      0.00000   3.93819   3.93819  1        9
siesta:      0.00000  11.81457   3.93819  1       10
siesta:      3.93819   0.00000   3.93819  1       11
siesta:      3.93819   7.87638   3.93819  1       12
siesta:      7.87638   3.93819   3.93819  1       13
siesta:      7.87638  11.81457   3.93819  1       14
siesta:     11.81457   0.00000   3.93819  1       15
siesta:     11.81457   7.87638   3.93819  1       16
siesta:      0.00000   0.00000   7.87638  1       17
siesta:      0.00000   7.87638   7.87638  1       18
siesta:      3.93819   3.93819   7.87638  1       19
siesta:      3.93819  11.81457   7.87638  1       20
siesta:      7.87638   0.00000   7.87638  1       21
siesta:      7.87638   7.87638   7.87638  1       22
siesta:     11.81457   3.93819   7.87638  1       23
siesta:     11.81457  11.81457   7.87638  1       24
siesta:      0.00000   3.93819  11.81457  1       25
siesta:      0.00000  11.81457  11.81457  1       26
siesta:      3.93819   0.00000  11.81457  1       27
siesta:      3.93819   7.87638  11.81457  1       28
siesta:      7.87638   3.93819  11.81457  1       29
siesta:      7.87638  11.81457  11.81457  1       30
siesta:     11.81457   0.00000  11.81457  1       31
siesta:     11.81457   7.87638  11.81457  1       32
siesta:      0.00000   0.00000  15.75276  1       33
siesta:      0.00000   7.87638  15.75276  1       34
siesta:      3.93819   3.93819  15.75276  1       35
siesta:      3.93819  11.81457  15.75276  1       36
siesta:      7.87638   0.00000  15.75276  1       37
siesta:      7.87638   7.87638  15.75276  1       38
siesta:     11.81457   3.93819  15.75276  1       39
siesta:     11.81457  11.81457  15.75276  1       40
siesta:      0.00000   3.93819  19.69095  1       41
siesta:      0.00000  11.81457  19.69095  1       42
siesta:      3.93819   0.00000  19.69095  1       43
siesta:      3.93819   7.87638  19.69095  1       44
siesta:      7.87638   3.93819  19.69095  1       45
siesta:      7.87638  11.81457  19.69095  1       46
siesta:     11.81457   0.00000  19.69095  1       47
siesta:     11.81457   7.87638  19.69095  1       48
siesta:      0.00000   0.00000  40.48173  1       49
siesta:      0.00000   7.87638  40.48173  1       50
siesta:      3.93819   3.93819  40.48173  1       51
siesta:      3.93819  11.81457  40.48173  1       52
siesta:      7.87638   0.00000  40.48173  1       53
siesta:      7.87638   7.87638  40.48173  1       54
siesta:     11.81457   3.93819  40.48173  1       55
siesta:     11.81457  11.81457  40.48173  1       56
siesta:      0.00000   3.93819  44.41992  1       57
siesta:      0.00000  11.81457  44.41992  1       58
siesta:      3.93819   0.00000  44.41992  1       59
siesta:      3.93819   7.87638  44.41992  1       60
siesta:      7.87638   3.93819  44.41992  1       61
siesta:      7.87638  11.81457  44.41992  1       62
siesta:     11.81457   0.00000  44.41992  1       63
siesta:     11.81457   7.87638  44.41992  1       64
siesta:      0.00000   0.00000  48.35811  1       65
siesta:      0.00000   7.87638  48.35811  1       66
siesta:      3.93819   3.93819  48.35811  1       67
siesta:      3.93819  11.81457  48.35811  1       68
siesta:      7.87638   0.00000  48.35811  1       69
siesta:      7.87638   7.87638  48.35811  1       70
siesta:     11.81457   3.93819  48.35811  1       71
siesta:     11.81457  11.81457  48.35811  1       72
siesta:      0.00000   3.93819  52.29630  1       73
siesta:      0.00000  11.81457  52.29630  1       74
siesta:      3.93819   0.00000  52.29630  1       75
siesta:      3.93819   7.87638  52.29630  1       76
siesta:      7.87638   3.93819  52.29630  1       77
siesta:      7.87638  11.81457  52.29630  1       78
siesta:     11.81457   0.00000  52.29630  1       79
siesta:     11.81457   7.87638  52.29630  1       80
siesta:      0.00000   0.00000  56.23449  1       81
siesta:      0.00000   7.87638  56.23449  1       82
siesta:      3.93819   3.93819  56.23449  1       83
siesta:      3.93819  11.81457  56.23449  1       84
siesta:      7.87638   0.00000  56.23449  1       85
siesta:      7.87638   7.87638  56.23449  1       86
siesta:     11.81457   3.93819  56.23449  1       87
siesta:     11.81457  11.81457  56.23449  1       88
siesta:      0.00000   3.93819  60.17268  1       89
siesta:      0.00000  11.81457  60.17268  1       90
siesta:      3.93819   0.00000  60.17268  1       91
siesta:      3.93819   7.87638  60.17268  1       92
siesta:      7.87638   3.93819  60.17268  1       93
siesta:      7.87638  11.81457  60.17268  1       94
siesta:     11.81457   0.00000  60.17268  1       95
siesta:     11.81457   7.87638  60.17268  1       96

siesta: System type = bulk      

initatomlists: Number of atoms, orbitals, and projectors:     96   576  1536

SMEAGOL: ******************* SMEAGOL Simulation parameters ********************
SMEAGOL:
SMEAGOL:       The following are some of the SMEAGOL parameters of the
SMEAGOL:       simulation. A complete list of the parameters used,
SMEAGOL:       including default values, can be found in file fdf.log.
SMEAGOL:
redata: Transport in extended molecule                =      T
redata: # of points in real energy axis integral      =     64
redata: # of contour points in semi-circle            =     34
redata: # of contour points in line region            =     20
redata: # of poles in the Fermi function              =      5
redata: Initial value of the bias potential           =      0.2940 Ry
redata: Final value of the bias potential             =      0.2940 Ry
redata: # of bias potential points                    =      0
redata: Small imaginary part                          =      0.00010
redata: Lower bound for the contour integral          =     -7.3498 Ry
redata: 1 = Leads with different spin                 =      0
redata: Atom of the lead where bias slope starts      =      1
redata: Atom of the lead where bias slope ends        =     96
redata: # of bulk slices to include in EM             =      1
redata: Calculate transmission coefficients           =      T
redata: Set bulk transversal cell                     =      F
redata: Bulk transversal cell size                    =      3
redata: Write leads H and S matrices at .HSL          =      F
redata: Init transport                                =      F
redata: Force super cell in z direction = 3           =      F
redata: Calculated electronic structure for           =     LR
redata: Write converged DM (at bias/MD selected step) =      F
redata: Hartree Leads Left                            =      0.0000 Bohr
redata: Hartree Leads Right                           =      0.0000 Bohr
redata: Hartree Leads Bottom                          =     -1.1208 Ry
redata: Periodic leads in perpendicular directions    =      F
redata: Thresholds at generalized SVD                 =      0.000000001000
redata: Write .orb, .ef and .gHS files                =      F
redata: Write .onlyS files                            =      F
redata: Electron-phonon interaction                   =      F
redata: Invert only central region    =      F
redata: Calculate Forces    =      F
redata: ***********************************************************************

siesta: ******************** SIESTA Simulation parameters *********************
siesta:
siesta:       The following are some of the SIESTA parameters of the
siesta:       simulation. A complete list of the parameters used,
siesta:       including default values, can be found in file fdf.log.
siesta:
redata: Non-Collinear-spin run             =       F
redata: SpinPolarized (Up/Down) run        =       F
redata: Number of spin components          =       1
redata: Long output                        =       F
redata: Number of Atomic Species           =       1
redata: Charge density info will appear in .RHO file
redata: Write Mulliken Pop.                =      NO
redata: Mesh Cutoff                        =     200.0000  Ry
redata: Net charge of the system           =       0.0000 |e|
redata: Max. number of SCF Iter            =     500
redata: Performing Pulay mixing using      =       4 iterations
redata: Mix DM in first SCF step ?         =       T
redata: Write Pulay info on disk?          =       F
redata: Discard 1st Pulay DM after kick    =       F
redata: New DM Mixing Weight               =       0.1000
redata: New DM Occupancy tolerance         =       0.000000000001
redata: No kicks to SCF
redata: DM Mixing Weight for Kicks         =       0.5000
redata: DM Tolerance for SCF               =       0.000100
redata: Require Energy convergence for SCF =       F
redata: DM Energy tolerance for SCF        =       0.000100 eV
redata: Require Harris convergence for SCF =       F
redata: DM Harris energy tolerance for SCF =       0.000100 eV
redata: Using Saved Data (generic)         =       F
redata: Use continuation files for DM      =       T
redata: Neglect nonoverlap interactions    =       F
redata: Method of Calculation              =     Diagonalization
redata: Divide and Conquer                 =       T
redata: Electronic Temperature             =       0.0019  Ry
redata: Fix the spin of the system         =       F
redata: Dynamics option                    =     Verlet MD run
redata: Initial MD time step               =       1
redata: Final MD time step                 =       1
redata: Length of MD time step             =       1.0000  fs
redata: Initial Temperature of MD run      =       0.0000  K
redata: Perform a MD quench                =       F
redata: ***********************************************************************

Total number of electrons:  1056.000000
Total ionic charge:  1056.000000

* ProcessorY, Blocksize:    8   9

k-point displ. along   1 input, could be:     0.00    0.50
k-point displ. along   2 input, could be:     0.00    0.50
 Kpoints in:           12 . Kpoints trimmed:           11

siesta: k-grid: Number of k-points =    11
siesta: k-grid: Cutoff (effective) =    16.672 Ang
siesta: k-grid: Supercell and displacements
siesta: k-grid:    4   0   0      0.000
siesta: k-grid:    0   4   0      0.000
siesta: k-grid:    0   0   1      0.000
siesta: overlap:  rmaxh   veclen  direction
siesta: overlap:  20.0465 15.7528   1
siesta: overlap:  rmaxh   veclen  direction
siesta: overlap:  20.0465 15.7528   2
siesta: overlap:  rmaxh   veclen  direction
siesta: overlap:  20.0465 64.1109   3
Naive supercell factors:     3    3    1

superc: Internal auxiliary supercell:     3 x     3 x     1  =       9
superc: Number of atoms, orbitals, and projectors:    864   5184  13824

* Maximum dynamic memory allocated =     1 MB

siesta:                 ===============================
SMEAGOL                 Bias step =    0, V =  0.294 Ry
                            Begin MD step =      1
                        ===============================

superc: Internal auxiliary supercell:     3 x     3 x     1  =       9
superc: Number of atoms, orbitals, and projectors:    864   5184  13824

outcell: Unit cell vectors (Ang):
        8.336000    0.000000    0.000000
        0.000000    8.336000    0.000000
        0.000000    0.000000   33.926000

outcell: Cell vector modules (Ang)   :    8.336000    8.336000   33.926000
outcell: Cell angles (23,13,12) (deg):     90.0000     90.0000     90.0000
outcell: Cell volume (Ang**3)        :   2357.4803
New_DM. Step:     1
Initializing Density Matrix...

InitMesh: MESH =    72 x    72 x   300 =     1555200
InitMesh: Mesh cutoff (required, used) =   200.000   206.182 Ry
SMEAGOL: average =  -1.11970, shift =  -1.12082, count =   5184
SMEAGOL: minL =   0.00000, maxR =   0.00000

* Maximum dynamic memory allocated =    28 MB

SMEAGOL: Integral method for real-axis = Traditional 
 calling get_energy_points
 no. of left channels .ne. number of right channels
          19         114          22         115
 Norm :   197.289864180606       Cond num :   2.683231187922614E-025
 The condition number of the matrix H1             was too large, left lead
 (-0.481515950047219,0.000000000000000E+000)
 warning:Should stop but I go on, lets see

SMEAGOL: Integral method for real-axis = Traditional 

SMEAGOL: Integral method for real-axis = Traditional 
 no. of left channels .ne. number of right channels
          22         113          23         114
 Norm :   115.772856321778       Cond num :   6.987692547389882E-026
 The condition number of the matrix H1             was too large, left lead
 (-0.486007794683896,0.000000000000000E+000)
 warning:Should stop but I go on, lets see

SMEAGOL: Integral method for real-axis = Traditional 

SMEAGOL: Integral method for real-axis = Traditional 
 no. of left channels .ne. number of right channels
          19         119          19         113
 Norm :   197.066679501792       Cond num :   9.834655377363042E-026
 The condition number of the matrix H1             was too large, left lead
 (-0.481515950047219,0.000000000000000E+000)
 warning:Should stop but I go on, lets see

SMEAGOL: Integral method for real-axis = Traditional 

SMEAGOL: Integral method for real-axis = Traditional 

SMEAGOL: Integral method for real-axis = Traditional 

SMEAGOL: Integral method for real-axis = Traditional 

SMEAGOL: Integral method for real-axis = Traditional 

SMEAGOL: Integral method for real-axis = Traditional 

siesta: Program's energy decomposition (eV):
siesta: Ebs     =     -7362.214631
siesta: Eions   =    115680.044384
siesta: Ena     =      6422.662625
siesta: Ekin    =     64683.514008
siesta: Enl     =    -24893.125209
siesta: DEna    =         0.000000
siesta: DUscf   =         0.000000
siesta: DUext   =         0.000000
siesta: Exc     =    -40111.144532
siesta: eta*DQ  =         0.000000
siesta: Emadel  =         0.000000
siesta: Emeta   =         0.000000
siesta: Emolmec =         0.000000
siesta: Ekinion =         0.000000
siesta: Eharris =   -109426.161992
siesta: Etot    =   -109578.137491
siesta: FreeEng =   -109578.137491

siesta: iscf   Eharris(eV)      E_KS(eV)   FreeEng(eV)   dDmax  Ef(eV)
siesta:    1  -109426.1620  -109578.1375  -109578.1375  1.0334  0.0000
timer: Routine,Calls,Time,% = IterSCF        1    2443.342  99.39
elaps: Routine,Calls,Wall,% = IterSCF        1      38.287  99.39
SMEAGOL: average =  -1.55612, shift =  -1.12082, count =   5184
SMEAGOL: minL =   0.00000, maxR =   0.00000
siesta:    2  -109369.7417  -109200.8116  -109200.8116  4.1999  0.0000
SMEAGOL: average =   6.87039, shift =  -1.12082, count =   5184
SMEAGOL: minL =   0.00000, maxR =   0.00000
siesta:    3   -82219.4249   -81780.9768   -81780.9768 50.0272  0.0000
SMEAGOL: average =  -2.53625, shift =  -1.12082, count =   5184
SMEAGOL: minL =   0.00000, maxR =   0.00000
siesta:    4  -109329.7822  -109344.7845  -109344.7845  4.0579  0.0000
SMEAGOL: average =  -1.73550, shift =  -1.12082, count =   5184
SMEAGOL: minL =   0.00000, maxR =   0.00000
siesta:    5  -109353.4571  -109352.4193  -109352.4193  3.0105  0.0000
SMEAGOL: average =  -1.41128, shift =  -1.12082, count =   5184
SMEAGOL: minL =   0.00000, maxR =   0.00000
siesta:    6  -109418.7030  -109419.0928  -109419.0928  1.2440  0.0000
SMEAGOL: average =  -1.39801, shift =  -1.12082, count =   5184
SMEAGOL: minL =   0.00000, maxR =   0.00000
siesta:    7  -109418.7863  -109421.1453  -109421.1453  1.1256  0.0000
SMEAGOL: average =  -1.18745, shift =  -1.12082, count =   5184
SMEAGOL: minL =   0.00000, maxR =   0.00000
siesta:    8  -109427.7811  -109427.6324  -109427.6324  0.0651  0.0000
SMEAGOL: average =  -1.17383, shift =  -1.12082, count =   5184
SMEAGOL: minL =   0.00000, maxR =   0.00000
siesta:    9  -109427.7524  -109427.6932  -109427.6932  0.0128  0.0000
SMEAGOL: average =  -1.17039, shift =  -1.12082, count =   5184
SMEAGOL: minL =   0.00000, maxR =   0.00000
siesta:   10  -109427.8667  -109427.7394  -109427.7394  0.0152  0.0000
SMEAGOL: average =  -1.17358, shift =  -1.12082, count =   5184
SMEAGOL: minL =   0.00000, maxR =   0.00000
siesta:   11  -109427.8754  -109427.8908  -109427.8908  0.0090  0.0000
SMEAGOL: average =  -1.16961, shift =  -1.12082, count =   5184
SMEAGOL: minL =   0.00000, maxR =   0.00000
siesta:   12  -109427.9015  -109427.8924  -109427.8924  0.0064  0.0000
SMEAGOL: average =  -1.16985, shift =  -1.12082, count =   5184
SMEAGOL: minL =   0.00000, maxR =   0.00000
siesta:   13  -109427.9278  -109427.9021  -109427.9021  0.0052  0.0000
SMEAGOL: average =  -1.17041, shift =  -1.12082, count =   5184
SMEAGOL: minL =   0.00000, maxR =   0.00000
siesta:   14  -109427.9291  -109427.9317  -109427.9317  0.0028  0.0000
SMEAGOL: average =  -1.17059, shift =  -1.12082, count =   5184
SMEAGOL: minL =   0.00000, maxR =   0.00000
siesta:   15  -109427.9363  -109427.9262  -109427.9262  0.0013  0.0000
SMEAGOL: average =  -1.17099, shift =  -1.12082, count =   5184
SMEAGOL: minL =   0.00000, maxR =   0.00000
siesta:   16  -109427.9330  -109427.9398  -109427.9398  0.0005  0.0000
SMEAGOL: average =  -1.17086, shift =  -1.12082, count =   5184
SMEAGOL: minL =   0.00000, maxR =   0.00000
siesta:   17  -109427.9294  -109427.9322  -109427.9322  0.0003  0.0000
SMEAGOL: average =  -1.17090, shift =  -1.12082, count =   5184
SMEAGOL: minL =   0.00000, maxR =   0.00000
siesta:   18  -109427.9281  -109427.9291  -109427.9291  0.0002  0.0000
SMEAGOL: average =  -1.17089, shift =  -1.12082, count =   5184
SMEAGOL: minL =   0.00000, maxR =   0.00000
siesta:   19  -109427.9297  -109427.9280  -109427.9280  0.0002  0.0000
SMEAGOL: average =  -1.17092, shift =  -1.12082, count =   5184
SMEAGOL: minL =   0.00000, maxR =   0.00000
siesta:   20  -109427.9315  -109427.9295  -109427.9295  0.0002  0.0000
SMEAGOL: average =  -1.17094, shift =  -1.12082, count =   5184
SMEAGOL: minL =   0.00000, maxR =   0.00000
siesta:   21  -109427.9311  -109427.9321  -109427.9321  0.0002  0.0000
SMEAGOL: average =  -1.17091, shift =  -1.12082, count =   5184
SMEAGOL: minL =   0.00000, maxR =   0.00000
siesta:   22  -109427.9324  -109427.9306  -109427.9306  0.0001  0.0000
SMEAGOL: average =  -1.17094, shift =  -1.12082, count =   5184
SMEAGOL: minL =   0.00000, maxR =   0.00000
siesta:   23  -109427.9329  -109427.9326  -109427.9326  0.0001  0.0000
SMEAGOL: average =  -1.17093, shift =  -1.12082, count =   5184
SMEAGOL: minL =   0.00000, maxR =   0.00000
siesta:   24  -109427.9331  -109427.9330  -109427.9330  0.0001  0.0000
SMEAGOL: average =  -1.17094, shift =  -1.12082, count =   5184
SMEAGOL: minL =   0.00000, maxR =   0.00000

SMEAGOL: InitTransmRange =  -0.73497988D+00, FinalTransmRange =   0.73497988D+00
SMEAGOL: trcde =  0.00000D+00, NeneT =   800
SMEAGOL: Ef =  -0.18063588D+00, temp =   0.19000693D-02
SMEAGOL: deltaimagtrc =   0.00000000D+00
 no. of left channels .ne. number of right channels
          18         116          16         120
 Norm :   130.618630926449       Cond num :   1.965483963780703E-025
 warnin0_R -0.804144056532965                1
 no. of left channels .ne. number of right channels
          24         112          23         111
 Norm :   1626.25280139764       Cond num :   6.589018423286145E-026
 warnin0_R -0.717467728398087                1
 no. of left channels .ne. number of right channels
           9         126          10         127
 Norm :   354.425255350727       Cond num :   1.429803026541184E-025
 warnin0_R -0.800606247221337                1
 no. of left channels .ne. number of right channels
          14         120          15         123
 Norm :   181.904881406184       Cond num :   1.020233244770076E-025
 warnin0_R -0.763459249449247                1
 no. of left channels .ne. number of right channels
          12         125          12         123
 Norm :   1138.36086574391       Cond num :   1.434507407861608E-026
 warnin0_L -0.538808358160891                1
 no. of left channels .ne. number of right channels
          13         120          12         127
 Norm :   762.129216853663       Cond num :   1.118463087513431E-025
 warnin0_L -0.503430265044615                1
 no. of left channels .ne. number of right channels
           6         125           8         133
 Norm :   401.567118937741       Cond num :   1.140889711370605E-025
 warnin0_L -0.533501644193449                1
 no. of left channels .ne. number of right channels
           6         129           7         130
 Norm :   215.362331906651       Cond num :   7.202189759107962E-026
 warnin0_L -0.254014708574865                1
 no. of left channels .ne. number of right channels
           9         130           8         129
 Norm :   90.3146555758549       Cond num :   1.474875985210750E-025
 warnin0_L -0.710392109774832                1
 no. of left channels .ne. number of right channels
          20         116          20         120
 Norm :   327.725358539090       Cond num :   1.956858180478260E-026
 warnin0_R -0.676782921314369                1
 no. of left channels .ne. number of right channels
          18         119          20         119
 Norm :   108.783640913587       Cond num :   2.893868832390735E-026
 warnin0_L -0.471589981239966                1
 no. of left channels .ne. number of right channels
          19         118          19         120
 Norm :   182.753943637328       Cond num :   4.904427859891320E-026
 warnin0_L -0.542346167472519                1
 no. of left channels .ne. number of right channels
          17         120          18         121
 Norm :   53.9059774069334       Cond num :   1.444824155993328E-025
 warnin0_L -0.510505883667870                1
 no. of left channels .ne. number of right channels
          16         120          16         118
 Norm :   130.629440317458       Cond num :   1.561182879443695E-025
 warnin0_R -0.804144056532965                1
 no. of left channels .ne. number of right channels
          17         119          16         118
 Norm :   150.216271094682       Cond num :   8.299641504047673E-026
 warnin0_R -0.864286814830635                1
 no. of left channels .ne. number of right channels
           8         129           6         127
 Norm :   133.425729510370       Cond num :   6.990643792328138E-025
 warnin0_L -0.637867018886465                1
 no. of left channels .ne. number of right channels
          15         121          15         119
 Norm :   385.503541878374       Cond num :   5.244747093784663E-026
 warnin0_L -0.476896695207407                1
 no. of left channels .ne. number of right channels
          20         120          20         116
 Norm :   327.721793958739       Cond num :   1.801741603474612E-027
 warnin0_R -0.676782921314369                1
 no. of left channels .ne. number of right channels
          19         120          19         118
 Norm :   182.803774453929       Cond num :   7.482934888165332E-026
 warnin0_L -0.542346167472519                1
 no. of left channels .ne. number of right channels
           8         131           8         125
 Norm :   2915.67549985009       Cond num :   2.646101897036601E-026
 warnin0_R -0.698009777184135                1
 no. of left channels .ne. number of right channels
          29         108          28         107
 Norm :   89.4019955411109       Cond num :   2.727051747647916E-025
 warnin0_R -0.756383630825991                1
 no. of left channels .ne. number of right channels
          19         116          20         117
 Norm :   205.975504635545       Cond num :   7.743695096389008E-026
 warnin0_R -0.752845821514364                1
 no. of left channels .ne. number of right channels
          20         117          19         116
 Norm :   52.5129790254297       Cond num :   3.532900308451861E-025
 warnin0_L -0.535270548849263                1
 no. of left channels .ne. number of right channels
          17         120          17         118
 Norm :   49.0038369182869       Cond num :   7.842642503085391E-026
 warnin0_L -0.533501644193449                1
 no. of left channels .ne. number of right channels
          19         118          18         117
 Norm :   245.295920708510       Cond num :   2.547339724211099E-025
 warnin0_L -0.505199169700428                1
 no. of left channels .ne. number of right channels
          20         117          19         116
 Norm :   102.390850564686       Cond num :   4.206696274853233E-025
 warnin0_R -0.797068437909709                1
 no. of left channels .ne. number of right channels
          20         115          21         116
 Norm :   35.4968088963082       Cond num :   1.257016625748522E-024
 warnin0_R -0.827139817058544                1
 no. of left channels .ne. number of right channels
          16         122          14         120
 Norm :   89.0531634243068       Cond num :   5.346529788516784E-025
 warnin0_R -0.834215435681800                1
 no. of left channels .ne. number of right channels
           8         126           8         130
 Norm :   2990.98351979016       Cond num :   7.152318300464289E-026
 warnin0_R -0.698009777184135                1
 no. of left channels .ne. number of right channels
          10         124          10         128
 Norm :   506.557000747920       Cond num :   1.826055921391529E-025
 warnin0_L -0.607795639737630                1
 no. of left channels .ne. number of right channels
           6         131           6         129
 Norm :   497.216779557224       Cond num :   1.351095827015178E-025
 warnin0_L -0.637867018886465                1
 no. of left channels .ne. number of right channels
          17         118          18         119
 Norm :   49.0004835187299       Cond num :   9.359681227036603E-025
 warnin0_L -0.533501644193449                1
 no. of left channels .ne. number of right channels
           9         128           8         127
 Norm :   355.171732584306       Cond num :   2.003524593855934E-025
 warnin0_R -0.800606247221337                1
 no. of left channels .ne. number of right channels
          23         112          24         113
 Norm :   70.5491761724217       Cond num :   1.055834031326637E-025
 warnin0_R -0.827139817058544                1
 no. of left channels .ne. number of right channels
          15         122          15         120
 Norm :   137.434623922772       Cond num :   1.713178514016794E-025
 warnin0_R -0.832446531025986                1
 no. of left channels .ne. number of right channels
          13         124          10         125
 Norm :   115.551605192921       Cond num :   1.128895408326263E-024
 warnin0_L -0.650249351477162                1
 no. of left channels .ne. number of right channels
          16         123          10         123
 Norm :   762.004791135144       Cond num :   1.589507696276455E-025
 warnin0_L -0.503430265044615                1
 no. of left channels .ne. number of right channels
          13         124          12         123
 Norm :   1138.71683153021       Cond num :   3.953440255974645E-026
 warnin0_L -0.538808358160891                1
 no. of left channels .ne. number of right channels
           8         125           8         131
 Norm :   401.615317725408       Cond num :   2.299163735652189E-025
 warnin0_L -0.533501644193449                1
 no. of left channels .ne. number of right channels
           7         130           6         129
 Norm :   215.358998862757       Cond num :   6.827986940366371E-027
 warnin0_L -0.254014708574865                1
 no. of left channels .ne. number of right channels
          22         116          20         114
 Norm :   35.4913815300703       Cond num :   1.652275931211407E-024
 warnin0_R -0.827139817058544                1
 no. of left channels .ne. number of right channels
           8         130           8         126
 Norm :   2991.08422985744       Cond num :   7.705423366198992E-026
 warnin0_R -0.698009777184135                1
 no. of left channels .ne. number of right channels
          29         108          28         107
 Norm :   89.4217631886247       Cond num :   7.676671988474095E-025
 warnin0_R -0.756383630825991                1
 no. of left channels .ne. number of right channels
          18         119          18         117
 Norm :   206.017796874629       Cond num :   6.008253816442056E-026
 warnin0_R -0.752845821514364                1
 no. of left channels .ne. number of right channels
           6         129           8         129
 Norm :   497.252296245165       Cond num :   5.647328828001691E-026
 warnin0_L -0.637867018886465                1
 no. of left channels .ne. number of right channels
          10         125          10         127
 Norm :   506.583546500579       Cond num :   1.203948002002883E-025
 warnin0_L -0.607795639737630                1
 no. of left channels .ne. number of right channels
          16         129          15         128
 Norm :   78.5674199216709       Cond num :   1.080683163868366E-026
 warnin0_R -0.805912961188778                1
 no. of left channels .ne. number of right channels
          14         129          15         130
 Norm :   47.8089610840004       Cond num :   3.340013856353001E-026
 warnin0_R -0.827139817058544                1
 no. of left channels .ne. number of right channels
          11         135          12         130
 Norm :   381.245235623720       Cond num :   5.524078521025413E-027
 warnin0_L -0.420291746221365                1

siesta: E_KS(eV) =          -109427.9331

siesta: E_KS - E_eggbox =   -109427.9331

siesta: Atomic forces (eV/Ang):
     1    0.000024    0.000024    0.437527
     2    0.000000    0.000000    0.437532
     3    0.000003    0.000001    0.437532
     4   -0.000002   -0.000001    0.437533
     5    0.000007    0.000014    0.437528
     6    0.000003    0.000001    0.437532
     7    0.000004    0.000000    0.437531
     8   -0.000004   -0.000002    0.437534
     9    0.000038    0.000001    0.041548
    10    0.000016    0.000010    0.041537
    11    0.000012    0.000035    0.041547
    12    0.000016   -0.000000    0.041536
    13    0.000014    0.000001    0.041534
    14    0.000001    0.000005    0.041535
    15    0.000019    0.000026    0.041542
    16    0.000019    0.000000    0.041533
    17    0.000031    0.000035    0.708206
    18    0.000039    0.000001    0.708208
    19    0.000020    0.000001    0.708209
    20    0.000003    0.000006    0.708195
    21    0.000011    0.000036    0.708214
    22    0.000019    0.000001    0.708211
    23    0.000019    0.000001    0.708205
    24    0.000001    0.000001    0.708193
    25    0.000038    0.000001   -0.380973
    26    0.000014    0.000009   -0.380981
    27    0.000012    0.000038   -0.380975
    28    0.000022    0.000001   -0.380974
    29    0.000023   -0.000000   -0.380971
    30    0.000004    0.000007   -0.380981
    31    0.000014    0.000028   -0.380979
    32    0.000017    0.000001   -0.380986
    33    0.000028    0.000036    0.530323
    34    0.000036   -0.000000    0.530327
    35    0.000012    0.000000    0.530329
    36   -0.000001   -0.000000    0.530314
    37    0.000001    0.000033    0.530331
    38    0.000013   -0.000000    0.530328
    39    0.000010    0.000000    0.530319
    40    0.000000   -0.000003    0.530310
    41    0.000002    0.000001   -2.153151
    42   -0.000004   -0.000005   -2.153140
    43   -0.000001   -0.000001   -2.153159
    44    0.000003   -0.000001   -2.153165
    45    0.000002    0.000001   -2.153165
    46   -0.000004   -0.000007   -2.153142
    47   -0.000001   -0.000002   -2.153150
    48   -0.000008    0.000001   -2.153148
    49    0.000004    0.000009    0.947916
    50    0.000003   -0.000000    0.947904
    51    0.000001    0.000001    0.947907
    52    0.000002   -0.000001    0.947904
    53    0.000004    0.000009    0.947911
    54    0.000003    0.000000    0.947907
    55    0.000002    0.000001    0.947906
    56    0.000002   -0.000001    0.947904
    57    0.000012    0.000001    0.622292
    58    0.000008    0.000006    0.622293
    59    0.000003    0.000021    0.622296
    60   -0.000004   -0.000001    0.622290
    61   -0.000004    0.000000    0.622289
    62   -0.000004    0.000001    0.622284
    63    0.000007    0.000014    0.622303
    64    0.000002    0.000000    0.622290
    65    0.000020    0.000028   -0.593562
    66    0.000028    0.000001   -0.593560
    67    0.000019    0.000001   -0.593560
    68    0.000004    0.000017   -0.593576
    69    0.000010    0.000033   -0.593560
    70    0.000017    0.000000   -0.593559
    71    0.000025    0.000001   -0.593565
    72    0.000007    0.000004   -0.593586
    73    0.000040    0.000000    0.519029
    74    0.000013    0.000008    0.519011
    75    0.000006    0.000038    0.519034
    76    0.000012    0.000000    0.519030
    77    0.000011   -0.000000    0.519031
    78   -0.000003    0.000003    0.519017
    79    0.000013    0.000034    0.519030
    80    0.000013    0.000001    0.519030
    81    0.000034    0.000035   -0.782449
    82    0.000038    0.000000   -0.782451
    83    0.000019    0.000001   -0.782444
    84    0.000003    0.000010   -0.782465
    85    0.000008    0.000036   -0.782444
    86    0.000019    0.000001   -0.782446
    87    0.000014    0.000002   -0.782463
    88    0.000004    0.000003   -0.782467
    89    0.000030    0.000000    0.057942
    90    0.000007    0.000030    0.057934
    91    0.000009    0.000026    0.057940
    92    0.000016    0.000001    0.057939
    93    0.000017    0.000001    0.057938
    94   -0.000002    0.000031    0.057934
    95    0.000032    0.000029    0.057934
    96    0.000047   -0.000000    0.057937
----------------------------------------
   Tot    0.001112    0.000765   -0.363103
----------------------------------------
   Max    2.153165
   Res    0.479590    sqrt( Sum f_i^2 / 3N )
----------------------------------------
   Max    2.153165    constrained

Stress-tensor-Voigt (kbar):      158.76      158.76      126.92       -0.00       -0.00       -0.00
(Free)E + p*V (eV/cell)  -109645.9163
Target enthalpy (eV/cell)  -109427.9331

siesta: Stress tensor (static) (eV/Ang**3):
         0.099089   -0.000000   -0.000000
        -0.000000    0.099089   -0.000000
        -0.000000   -0.000000    0.079216

siesta: Pressure (static):       -148.14601879  kBar

siesta: Stress tensor (total) (eV/Ang**3):
         0.099089   -0.000000   -0.000000
        -0.000000    0.099089   -0.000000
        -0.000000   -0.000000    0.079216

siesta: Pressure (total):       -148.14601879  kBar

siesta: Temp_ion =       0.000 K

* Maximum dynamic memory allocated =  2148 MB

coxmol: Writing XMOL coordinates into file 4V.xyz                                                          

siesta: Program's energy decomposition (eV):
siesta: Ebs     =     -7315.673624
siesta: Eions   =    115680.044384
siesta: Ena     =      6422.662625
siesta: Ekin    =     64397.514445
siesta: Enl     =    -24597.576623
siesta: DEna    =        89.942311
siesta: DUscf   =         1.598088
siesta: DUext   =         0.000000
siesta: Exc     =    -40062.029571
siesta: eta*DQ  =         0.000000
siesta: Emadel  =         0.000000
siesta: Emeta   =         0.000000
siesta: Emolmec =         0.000000
siesta: Ekinion =         0.000000
siesta: Eharris =   -109427.933103
siesta: Etot    =   -109427.933109
siesta: FreeEng =   -109427.933109

siesta: Final energy (eV):
siesta:  Band Struct. =   -7315.673624
siesta:       Kinetic =   64397.514445
siesta:       Hartree =  295040.555276
siesta:    Ext. field =       0.000000
siesta:   Exch.-corr. =  -40062.029571
siesta:  Ion-electron = -640469.363385
siesta:       Ion-ion =  211665.390125
siesta:       Ekinion =       0.000000
siesta:         Total = -109427.933109

siesta: Atomic forces (eV/Ang):
siesta:      1    0.000024    0.000024    0.437527
siesta:      2    0.000000    0.000000    0.437532
siesta:      3    0.000003    0.000001    0.437532
siesta:      4   -0.000002   -0.000001    0.437533
siesta:      5    0.000007    0.000014    0.437528
siesta:      6    0.000003    0.000001    0.437532
siesta:      7    0.000004    0.000000    0.437531
siesta:      8   -0.000004   -0.000002    0.437534
siesta:      9    0.000038    0.000001    0.041548
siesta:     10    0.000016    0.000010    0.041537
siesta:     11    0.000012    0.000035    0.041547
siesta:     12    0.000016   -0.000000    0.041536
siesta:     13    0.000014    0.000001    0.041534
siesta:     14    0.000001    0.000005    0.041535
siesta:     15    0.000019    0.000026    0.041542
siesta:     16    0.000019    0.000000    0.041533
siesta:     17    0.000031    0.000035    0.708206
siesta:     18    0.000039    0.000001    0.708208
siesta:     19    0.000020    0.000001    0.708209
siesta:     20    0.000003    0.000006    0.708195
siesta:     21    0.000011    0.000036    0.708214
siesta:     22    0.000019    0.000001    0.708211
siesta:     23    0.000019    0.000001    0.708205
siesta:     24    0.000001    0.000001    0.708193
siesta:     25    0.000038    0.000001   -0.380973
siesta:     26    0.000014    0.000009   -0.380981
siesta:     27    0.000012    0.000038   -0.380975
siesta:     28    0.000022    0.000001   -0.380974
siesta:     29    0.000023   -0.000000   -0.380971
siesta:     30    0.000004    0.000007   -0.380981
siesta:     31    0.000014    0.000028   -0.380979
siesta:     32    0.000017    0.000001   -0.380986
siesta:     33    0.000028    0.000036    0.530323
siesta:     34    0.000036   -0.000000    0.530327
siesta:     35    0.000012    0.000000    0.530329
siesta:     36   -0.000001   -0.000000    0.530314
siesta:     37    0.000001    0.000033    0.530331
siesta:     38    0.000013   -0.000000    0.530328
siesta:     39    0.000010    0.000000    0.530319
siesta:     40    0.000000   -0.000003    0.530310
siesta:     41    0.000002    0.000001   -2.153151
siesta:     42   -0.000004   -0.000005   -2.153140
siesta:     43   -0.000001   -0.000001   -2.153159
siesta:     44    0.000003   -0.000001   -2.153165
siesta:     45    0.000002    0.000001   -2.153165
siesta:     46   -0.000004   -0.000007   -2.153142
siesta:     47   -0.000001   -0.000002   -2.153150
siesta:     48   -0.000008    0.000001   -2.153148
siesta:     49    0.000004    0.000009    0.947916
siesta:     50    0.000003   -0.000000    0.947904
siesta:     51    0.000001    0.000001    0.947907
siesta:     52    0.000002   -0.000001    0.947904
siesta:     53    0.000004    0.000009    0.947911
siesta:     54    0.000003    0.000000    0.947907
siesta:     55    0.000002    0.000001    0.947906
siesta:     56    0.000002   -0.000001    0.947904
siesta:     57    0.000012    0.000001    0.622292
siesta:     58    0.000008    0.000006    0.622293
siesta:     59    0.000003    0.000021    0.622296
siesta:     60   -0.000004   -0.000001    0.622290
siesta:     61   -0.000004    0.000000    0.622289
siesta:     62   -0.000004    0.000001    0.622284
siesta:     63    0.000007    0.000014    0.622303
siesta:     64    0.000002    0.000000    0.622290
siesta:     65    0.000020    0.000028   -0.593562
siesta:     66    0.000028    0.000001   -0.593560
siesta:     67    0.000019    0.000001   -0.593560
siesta:     68    0.000004    0.000017   -0.593576
siesta:     69    0.000010    0.000033   -0.593560
siesta:     70    0.000017    0.000000   -0.593559
siesta:     71    0.000025    0.000001   -0.593565
siesta:     72    0.000007    0.000004   -0.593586
siesta:     73    0.000040    0.000000    0.519029
siesta:     74    0.000013    0.000008    0.519011
siesta:     75    0.000006    0.000038    0.519034
siesta:     76    0.000012    0.000000    0.519030
siesta:     77    0.000011   -0.000000    0.519031
siesta:     78   -0.000003    0.000003    0.519017
siesta:     79    0.000013    0.000034    0.519030
siesta:     80    0.000013    0.000001    0.519030
siesta:     81    0.000034    0.000035   -0.782449
siesta:     82    0.000038    0.000000   -0.782451
siesta:     83    0.000019    0.000001   -0.782444
siesta:     84    0.000003    0.000010   -0.782465
siesta:     85    0.000008    0.000036   -0.782444
siesta:     86    0.000019    0.000001   -0.782446
siesta:     87    0.000014    0.000002   -0.782463
siesta:     88    0.000004    0.000003   -0.782467
siesta:     89    0.000030    0.000000    0.057942
siesta:     90    0.000007    0.000030    0.057934
siesta:     91    0.000009    0.000026    0.057940
siesta:     92    0.000016    0.000001    0.057939
siesta:     93    0.000017    0.000001    0.057938
siesta:     94   -0.000002    0.000031    0.057934
siesta:     95    0.000032    0.000029    0.057934
siesta:     96    0.000047   -0.000000    0.057937
siesta: ----------------------------------------
siesta:    Tot    0.001112    0.000765   -0.363103

siesta: Stress tensor (static) (eV/Ang**3):
siesta:     0.099089   -0.000000   -0.000000
siesta:    -0.000000    0.099089   -0.000000
siesta:    -0.000000   -0.000000    0.079216

siesta: Cell volume =       2357.480286 Ang**3

siesta: Pressure (static):
siesta:                Solid            Molecule  Units
siesta:          -0.00100706         -0.00095817  Ry/Bohr**3
siesta:          -0.09246447         -0.08797629  eV/Ang**3
siesta:        -148.14601879       -140.95507383  kBar
(Free)E+ p_basis*V_orbitals  =     -109391.427063
(Free)Eharris+ p_basis*V_orbitals  =     -109391.427177
SMEAGOL: average =  -1.17094, shift =  -1.12082, count =   5184
SMEAGOL: minL =   0.00000, maxR =   0.00000

* Maximum dynamic memory allocated : Node    0 =  2147 MB
* Maximum dynamic memory allocated : Node    1 =  2144 MB
* Maximum dynamic memory allocated : Node    2 =  2147 MB
* Maximum dynamic memory allocated : Node    3 =  2148 MB
* Maximum dynamic memory allocated : Node    4 =  2145 MB
* Maximum dynamic memory allocated : Node    5 =  2144 MB
* Maximum dynamic memory allocated : Node    6 =  2144 MB
* Maximum dynamic memory allocated : Node    7 =  2144 MB
* Maximum dynamic memory allocated : Node    8 =  2145 MB
* Maximum dynamic memory allocated : Node    9 =  2144 MB
* Maximum dynamic memory allocated : Node   10 =  2147 MB
* Maximum dynamic memory allocated : Node   11 =  2148 MB
* Maximum dynamic memory allocated : Node   12 =  2145 MB
* Maximum dynamic memory allocated : Node   13 =  2144 MB
* Maximum dynamic memory allocated : Node   14 =  2144 MB
* Maximum dynamic memory allocated : Node   15 =  2144 MB
* Maximum dynamic memory allocated : Node   16 =  2144 MB
* Maximum dynamic memory allocated : Node   17 =  2144 MB
* Maximum dynamic memory allocated : Node   18 =  2147 MB
* Maximum dynamic memory allocated : Node   19 =  2148 MB
* Maximum dynamic memory allocated : Node   20 =  2144 MB
* Maximum dynamic memory allocated : Node   21 =  2144 MB
* Maximum dynamic memory allocated : Node   22 =  2144 MB
* Maximum dynamic memory allocated : Node   23 =  2144 MB
* Maximum dynamic memory allocated : Node   24 =  2144 MB
* Maximum dynamic memory allocated : Node   25 =  2144 MB
* Maximum dynamic memory allocated : Node   26 =  2147 MB
* Maximum dynamic memory allocated : Node   27 =  2148 MB
* Maximum dynamic memory allocated : Node   28 =  2144 MB
* Maximum dynamic memory allocated : Node   29 =  2144 MB
* Maximum dynamic memory allocated : Node   30 =  2144 MB
* Maximum dynamic memory allocated : Node   31 =  2144 MB
* Maximum dynamic memory allocated : Node   32 =  2148 MB
* Maximum dynamic memory allocated : Node   33 =  2148 MB
* Maximum dynamic memory allocated : Node   34 =  2146 MB
* Maximum dynamic memory allocated : Node   35 =  2148 MB
* Maximum dynamic memory allocated : Node   36 =  2144 MB
* Maximum dynamic memory allocated : Node   37 =  2148 MB
* Maximum dynamic memory allocated : Node   38 =  2148 MB
* Maximum dynamic memory allocated : Node   39 =  2148 MB
* Maximum dynamic memory allocated : Node   40 =  2148 MB
* Maximum dynamic memory allocated : Node   41 =  2148 MB
* Maximum dynamic memory allocated : Node   42 =  2146 MB
* Maximum dynamic memory allocated : Node   43 =  2148 MB
* Maximum dynamic memory allocated : Node   44 =  2144 MB
* Maximum dynamic memory allocated : Node   45 =  2148 MB
* Maximum dynamic memory allocated : Node   46 =  2148 MB
* Maximum dynamic memory allocated : Node   47 =  2148 MB
* Maximum dynamic memory allocated : Node   48 =  2148 MB
* Maximum dynamic memory allocated : Node   49 =  2148 MB
* Maximum dynamic memory allocated : Node   50 =  2146 MB
* Maximum dynamic memory allocated : Node   51 =  2148 MB
* Maximum dynamic memory allocated : Node   52 =  2144 MB
* Maximum dynamic memory allocated : Node   53 =  2148 MB
* Maximum dynamic memory allocated : Node   54 =  2148 MB
* Maximum dynamic memory allocated : Node   55 =  2148 MB
* Maximum dynamic memory allocated : Node   56 =  2148 MB
* Maximum dynamic memory allocated : Node   57 =  2148 MB
* Maximum dynamic memory allocated : Node   58 =  2146 MB
* Maximum dynamic memory allocated : Node   59 =  2148 MB
* Maximum dynamic memory allocated : Node   60 =  2144 MB
* Maximum dynamic memory allocated : Node   61 =  2148 MB
* Maximum dynamic memory allocated : Node   62 =  2148 MB
* Maximum dynamic memory allocated : Node   63 =  2148 MB

* Maximum memory occured during keldyshReal                   

timer: CPU execution times:
timer:  Routine       Calls   Time/call    Tot.time        %
timer:  siesta            1   18899.612   18899.612   100.00
timer:  Setup             1      10.028      10.028     0.05
timer:  bands             1       0.038       0.038     0.00
timer:  writewave         1       0.099       0.099     0.00
timer:  KSV_init          1       0.019       0.019     0.00
timer:  IterMD            1   18875.061   18875.061    99.87
timer:  hsparse           1       0.800       0.800     0.00
timer:  overlap           1       2.586       2.586     0.01
timer:  IterSCF          24     407.608    9782.587    51.76
timer:  kinefsm           2       1.230       2.459     0.01
timer:  nlefsm            2      17.607      35.214     0.19
timer:  DHSCF            26      14.223     369.795     1.96
timer:  DHSCF1            1       4.011       4.011     0.02
timer:  DHSCF2            1      35.897      35.897     0.19
timer:  REORD           266       0.002       0.499     0.00
timer:  POISON           27       0.234       6.331     0.03
timer:  DHSCF3           26      12.213     317.543     1.68
timer:  rhoofd           26       2.780      72.287     0.38
timer:  cellXC           26       0.286       7.436     0.04
timer:  vmat             25       6.908     172.693     0.91
timer:  MolMec            2       0.001       0.002     0.00
timer:  emtrans          25     735.671   18391.785    97.31
timer:  NEGFK           275      65.485   18008.450    95.28
timer:  RE_SENE         286       8.255    2361.042    12.49
timer:  IM_SENE          11      64.499     709.484     3.75
timer:  DHSCF4            1      12.024      12.024     0.06
timer:  dfscf             1       6.604       6.604     0.03
timer:  overfsm           1       0.133       0.133     0.00
timer:  TRANSM           11     782.062    8602.678    45.52
timer:  senetrc          11     747.216    8219.374    43.49
timer:  CURRENT          11       6.889      75.783     0.40
timer:  optical           1       1.820       1.820     0.01
  

elaps: ELAPSED times:
elaps:  Routine       Calls   Time/call    Tot.time        %
elaps:  siesta            1     296.044     296.044   100.00
elaps:  Setup             1       0.158       0.158     0.05
elaps:  bands             1       0.001       0.001     0.00
elaps:  writewave         1       0.002       0.002     0.00
elaps:  KSV_init          1       0.000       0.000     0.00
elaps:  IterMD            1     295.656     295.656    99.87
elaps:  hsparse           1       0.013       0.013     0.00
elaps:  overlap           1       0.042       0.042     0.01
elaps:  IterSCF          24       6.385     153.243    51.76
elaps:  kinefsm           2       0.020       0.040     0.01
elaps:  nlefsm            2       0.344       0.688     0.23
elaps:  DHSCF            26       0.225       5.851     1.98
elaps:  DHSCF1            1       0.066       0.066     0.02
elaps:  DHSCF2            1       0.560       0.560     0.19
elaps:  REORD           266       0.000       0.010     0.00
elaps:  POISON           27       0.004       0.101     0.03
elaps:  DHSCF3           26       0.191       4.975     1.68
elaps:  rhoofd           26       0.071       1.857     0.63
elaps:  cellXC           26       0.004       0.112     0.04
elaps:  vmat             25       0.108       2.705     0.91
elaps:  MolMec            2       0.000       0.000     0.00
elaps:  emtrans          25      11.525     288.128    97.33
elaps:  NEGFK           275       1.022     281.102    94.95
elaps:  RE_SENE         286       0.141      40.302    13.61
elaps:  IM_SENE          11       0.939      10.326     3.49
elaps:  DHSCF4            1       0.246       0.246     0.08
elaps:  dfscf             1       0.146       0.146     0.05
elaps:  overfsm           1       0.002       0.002     0.00
elaps:  TRANSM           11      12.787     140.655    47.51
elaps:  senetrc          11      12.742     140.164    47.35
elaps:  CURRENT          11       0.042       0.464     0.16
elaps:  optical           1       0.000       0.000     0.00
  
>> End of run:   3-NOV-2023  11:59:38
