Siesta Version: ismeagol.1.0
Architecture  : thomas-intel2017update1-intelmpi-mkl
Compiler flags: mpif90 -O2 -fPIC -g -ftree-vectorize -xHost
PARALLEL version

* Running on   64 nodes in parallel
>> Start of run:   3-NOV-2023  11:48:08

                           ***********************       
                           *  WELCOME TO SIESTA  *       
                           ***********************       

reinit: Reading from standard input
************************** Dump of input data file ****************************
SystemName		    Bulk transport		# Descriptive name of the system
SystemLabel 			bulk		# Short name for naming files
NumberOfAtoms    32
NumberOfSpecies			1               # Number of species
PAO.BasisType			split		# Type of basis ('nones', 'nonodes', 'split')
%block ChemicalSpeciesLabel
1 79 Au
%endblock ChemicalSpeciesLabel
%block PAO.Basis
  Au  2
n=6  0  1
6.500
1.00
n=5  2  1
5.850
1.00
%endblock PAO.Basis
%block PS.lmax
 Au   3
%endblock PS.lmax
LatticeConstant 1.000 Ang
%block LatticeVectors
  8.336     0.000   0.000	  1
  0.000   8.336    0.000   1
  0.000   0.000      8.336  1
%endblock LatticeVectors
AtomicCoordinatesFormat Ang
%block AtomicCoordinatesAndAtomicSpecies
0.0 0.0 0.0 1 Au
0.0 4.168 0.0 1 Au
2.084 2.084 0.0 1 Au
2.084 6.252 0.0 1 Au
4.168 0.0 0.0 1 Au
4.168 4.168 0.0 1 Au
6.252 2.084 0.0 1 Au
6.252 6.252 0.0 1 Au
0.0 2.084 2.084 1 Au
0.0 6.252 2.084 1 Au
2.084 0.0 2.084 1 Au
2.084 4.168 2.084 1 Au
4.168 2.084 2.084 1 Au
4.168 6.252 2.084 1 Au
6.252 0.0 2.084 1 Au
6.252 4.168 2.084 1 Au
0.0 0.0 4.168 1 Au
0.0 4.168 4.168 1 Au
2.084 2.084 4.168 1 Au
2.084 6.252 4.168 1 Au
4.168 0.0 4.168 1 Au
4.168 4.168 4.168 1 Au
6.252 2.084 4.168 1 Au
6.252 6.252 4.168 1 Au
0.0 2.084 6.252 1 Au
0.0 6.252 6.252 1 Au
2.084 0.0 6.252 1 Au
2.084 4.168 6.252 1 Au
4.168 2.084 6.252 1 Au
4.168 6.252 6.252 1 Au
6.252 0.0 6.252 1 Au
6.252 4.168 6.252 1 Au
%endblock AtomicCoordinatesAndAtomicSpecies 	
%block kgrid_Monkhorst_Pack
  4   0   0     0.0
  0   4   0     0.0
  0   0   20    0.0
%endblock kgrid_Monkhorst_Pack
xc.functional		LDA		# 'LDA', 'GGA'
xc.authors 	 		CA		# 'CA'='PZ', 'PW92', 'PBE'
SpinPolarized			F		# 'T', 'F'		
#FixSpin           F
#TotalSpin        0.0
NonCollinearSpin		F		# 'T', 'F'
MeshCutoff 	 		    200 Ry		# Equivalent plane wave cutoff for the grid
MaxSCFIterations		10000
DM.MixingWeight			0.1
DM.NumberPulay			4	# Pulay convergency accelerator
DM.PulayOnFile			F		# Store in memory ('F') or in files ('T')
#DM.NumberKick         30
#DM.KickMixingWeight   0.1
DM.Tolerance 		0.5E-5
NeglNonOverlapInt		F		# 'F'=do not neglect
SolutionMethod			diagon
ElectronicTemperature		300 K		# Default value
DM.UseSaveDM 			T
#MD.UseSaveXV			T
#MD.UseSaveCG			T
WriteForces      T
WriteCoorXmol			T		# Write Atoms coordinates
SaveElectrostaticPotential      T
#SaveHS				T		# Save the Hamiltonian and Overlap matrices
SaveRho				T		# Save the valence pseudocharge density
#SaveDeltaRho			T
#WriteDenchar			T		# Write Denchar output
WriteMullikenPop		1 #write mulliken population of aromic and orbital charges
#-----
#smeagol
#-----
BulkTransport			T
BulkLeads			LR
************************** End of input data file *****************************

reinit: -----------------------------------------------------------------------
reinit: System Name: Bulk transport
reinit: -----------------------------------------------------------------------
reinit: System Label: bulk                                                        
reinit: -----------------------------------------------------------------------

initatom: Reading input for the pseudopotentials and atomic orbitals ----------
 Species number:            1  Label: Au Atomic number:          79
Ground state valence configuration:   6s01  5d10
Reading pseudopotential information in formatted form from Au.psf

Pseudopotential generated from a relativistic atomic calculation
There are spin-orbit pseudopotentials available
Spin-orbit interaction is not included in this calculation

Valence configuration for pseudopotential generation:
6s( 1.00) rc: 2.18
6p( 0.00) rc: 2.47
5d(10.00) rc: 1.79
5f( 0.00) rc: 2.00
relmxkb: Read Max KB Ang. Momentum=    3 for species Au
 Warning: Empty PAO shell. l =           1
 Will have a KB projector anyway...

<basis_specs>
===============================================================================
Au                   Z=  79    Mass=  196.97        Charge= 0.17977+309
Lmxo=2 Lmxkb= 3    BasisType=split      Semic=F
L=0  Nsemic=0  Cnfigmx=6
          n=1  nzeta=1  polorb=0
            splnorm:   0.15000    
               vcte:    0.0000    
               rinn:    0.0000    
                rcs:    6.5000    
            lambdas:    1.0000    
L=1  Nsemic=0  Cnfigmx=6
L=2  Nsemic=0  Cnfigmx=5
          n=1  nzeta=1  polorb=0
            splnorm:   0.15000    
               vcte:    0.0000    
               rinn:    0.0000    
                rcs:    5.8500    
            lambdas:    1.0000    
-------------------------------------------------------------------------------
L=0  Nkbl=1  erefs: 0.17977+309
L=1  Nkbl=1  erefs: 0.17977+309
L=2  Nkbl=1  erefs: 0.17977+309
L=3  Nkbl=1  erefs: 0.17977+309
===============================================================================
</basis_specs>

atom: Called for Au                    (Z =  79)

read_vps: Pseudopotential generation method:
read_vps: ATM3      Troullier-Martins                       
Total valence charge:   11.00000

read_vps: Pseudopotential includes a core correction:
read_vps: Pseudo-core for xc-correction

xc_check: Exchange-correlation functional:
xc_check: Ceperley-Alder
V l=0 = -2*Zval/r beyond r=  2.9833
V l=1 = -2*Zval/r beyond r=  2.9833
V l=2 = -2*Zval/r beyond r=  2.9833
V l=3 = -2*Zval/r beyond r=  2.9833
All V_l potentials equal beyond r=  2.4425
This should be close to max(r_c) in ps generation
All pots = -2*Zval/r beyond r=  2.9833

VLOCAL1: 99.0% of the norm of Vloc inside      7.276 Ry
VLOCAL1: 99.9% of the norm of Vloc inside     16.582 Ry
atom: Maximum radius for 4*pi*r*r*local-pseudopot. charge    2.94627
atom: Maximum radius for r*vlocal+2*Zval:    2.60007
GHOST: No ghost state for L =  0
GHOST: No ghost state for L =  1
GHOST: No ghost state for L =  2
GHOST: No ghost state for L =  3

KBgen: Kleinman-Bylander projectors: 
   l= 0   rc=  3.175745   el= -0.445638   Ekb=  5.072790   kbcos=  0.276607
   l= 1   rc=  3.256140   el= -0.066324   Ekb=  2.703235   kbcos=  0.227171
   l= 2   rc=  3.020861   el= -0.526103   Ekb= -4.704026   kbcos= -0.643795
   l= 3   rc=  3.466145   el=  0.003438   Ekb= -2.516122   kbcos= -0.010529

KBgen: Total number of  Kleinman-Bylander projectors:   16
atom: -------------------------------------------------------------------------

atom: SANKEY-TYPE ORBITALS:

SPLIT: Orbitals with angular momentum L= 0

SPLIT: Basis orbitals for state 6s

   izeta = 1
                 lambda =    1.000000
                     rc =    6.557093
                 energy =   -0.435455
                kinetic =    0.389259
    potential(screened) =   -0.824714
       potential(ionic) =   -8.467175

SPLIT: Orbitals with angular momentum L= 2

SPLIT: Basis orbitals for state 5d

   izeta = 1
                 lambda =    1.000000
                     rc =    5.933100
                 energy =   -0.524775
                kinetic =    4.913203
    potential(screened) =   -5.437978
       potential(ionic) =  -15.883506
atom: Total number of Sankey-type orbitals:  6

atm_pop: Valence configuration (for local Pseudopot. screening):
 6s( 1.00)                                                            
 6p( 0.00)                                                            
 5d(10.00)                                                            
Vna: chval, zval:   11.00000  11.00000

Vna:  Cut-off radius for the neutral-atom potential:   6.557093
comcore: Pseudo-core radius Rcore=  4.027091

atom: _________________________________________________________________________

prinput: Basis input ----------------------------------------------------------

PAO.BasisType split     

%block ChemicalSpeciesLabel
    1   79 Au                      # Species index, atomic number, species label
%endblock ChemicalSpeciesLabel

%block PAO.Basis                 # Define Basis set
Au                    2                    # Species label, number of l-shells
 n=6   0   1                         # n, l, Nzeta 
   6.557   
   1.000   
 n=5   2   1                         # n, l, Nzeta 
   5.933   
   1.000   
%endblock PAO.Basis

prinput: ----------------------------------------------------------------------

coor:   Atomic-coordinates input format  =     Cartesian coordinates
coor:                                          (in Angstroms)

siesta: Atomic coordinates (Bohr) and species
siesta:      0.00000   0.00000   0.00000  1        1
siesta:      0.00000   7.87638   0.00000  1        2
siesta:      3.93819   3.93819   0.00000  1        3
siesta:      3.93819  11.81457   0.00000  1        4
siesta:      7.87638   0.00000   0.00000  1        5
siesta:      7.87638   7.87638   0.00000  1        6
siesta:     11.81457   3.93819   0.00000  1        7
siesta:     11.81457  11.81457   0.00000  1        8
siesta:      0.00000   3.93819   3.93819  1        9
siesta:      0.00000  11.81457   3.93819  1       10
siesta:      3.93819   0.00000   3.93819  1       11
siesta:      3.93819   7.87638   3.93819  1       12
siesta:      7.87638   3.93819   3.93819  1       13
siesta:      7.87638  11.81457   3.93819  1       14
siesta:     11.81457   0.00000   3.93819  1       15
siesta:     11.81457   7.87638   3.93819  1       16
siesta:      0.00000   0.00000   7.87638  1       17
siesta:      0.00000   7.87638   7.87638  1       18
siesta:      3.93819   3.93819   7.87638  1       19
siesta:      3.93819  11.81457   7.87638  1       20
siesta:      7.87638   0.00000   7.87638  1       21
siesta:      7.87638   7.87638   7.87638  1       22
siesta:     11.81457   3.93819   7.87638  1       23
siesta:     11.81457  11.81457   7.87638  1       24
siesta:      0.00000   3.93819  11.81457  1       25
siesta:      0.00000  11.81457  11.81457  1       26
siesta:      3.93819   0.00000  11.81457  1       27
siesta:      3.93819   7.87638  11.81457  1       28
siesta:      7.87638   3.93819  11.81457  1       29
siesta:      7.87638  11.81457  11.81457  1       30
siesta:     11.81457   0.00000  11.81457  1       31
siesta:     11.81457   7.87638  11.81457  1       32

siesta: System type = bulk      

initatomlists: Number of atoms, orbitals, and projectors:     32   192   512

SMEAGOL: ******************* SMEAGOL Simulation parameters ********************
SMEAGOL:
SMEAGOL:       The following are some of the SMEAGOL parameters of the
SMEAGOL:       simulation. A complete list of the parameters used,
SMEAGOL:       including default values, can be found in file fdf.log.
SMEAGOL:
redata: Transport in extended molecule                =      F
redata: # of points in real energy axis integral      =   6000
redata: # of contour points in semi-circle            =     34
redata: # of contour points in line region            =     20
redata: # of poles in the Fermi function              =      5
redata: Initial value of the bias potential           =      0.0000 Ry
redata: Final value of the bias potential             =      0.1000 Ry
redata: # of bias potential points                    =     10
redata: Small imaginary part                          =      0.00010
redata: Lower bound for the contour integral          =     -5.0000 Ry
redata: 1 = Leads with different spin                 =      0
redata: Atom of the lead where bias slope starts      =      1
redata: Atom of the lead where bias slope ends        =     32
redata: # of bulk slices to include in EM             =      1
redata: Calculate transmission coefficients           =      F
redata: Set bulk transversal cell                     =      F
redata: Bulk transversal cell size                    =      3
redata: Write leads H and S matrices at .HSL          =      T
redata: Init transport                                =      F
redata: Force super cell in z direction = 3           =      F
redata: Calculated electronic structure for           =     LR
redata: Write converged DM (at bias/MD selected step) =      F
redata: Hartree Leads Left                            =      0.0000 Bohr
redata: Hartree Leads Right                           =      0.0000 Bohr
redata: Hartree Leads Bottom                          =      0.0000 Ry
redata: Periodic leads in perpendicular directions    =      F
redata: Thresholds at generalized SVD                 =      0.000000001000
redata: Write .orb, .ef and .gHS files                =      F
redata: Write .onlyS files                            =      F
redata: Invert only central region    =      F
redata: Calculate Forces    =      F
redata: ***********************************************************************

siesta: ******************** SIESTA Simulation parameters *********************
siesta:
siesta:       The following are some of the SIESTA parameters of the
siesta:       simulation. A complete list of the parameters used,
siesta:       including default values, can be found in file fdf.log.
siesta:
redata: Non-Collinear-spin run             =       F
redata: SpinPolarized (Up/Down) run        =       F
redata: Number of spin components          =       1
redata: Long output                        =       F
redata: Number of Atomic Species           =       1
redata: Charge density info will appear in .RHO file
redata: Write Mulliken Pop.                =     Atomic and Orbital charges
redata: Mesh Cutoff                        =     200.0000  Ry
redata: Net charge of the system           =       0.0000 |e|
redata: Max. number of SCF Iter            =   10000
redata: Performing Pulay mixing using      =       4 iterations
redata: Mix DM in first SCF step ?         =       F
redata: Write Pulay info on disk?          =       F
redata: Discard 1st Pulay DM after kick    =       F
redata: New DM Mixing Weight               =       0.1000
redata: New DM Occupancy tolerance         =       0.000000000001
redata: No kicks to SCF
redata: DM Mixing Weight for Kicks         =       0.5000
redata: DM Tolerance for SCF               =       0.000005
redata: Require Energy convergence for SCF =       F
redata: DM Energy tolerance for SCF        =       0.000100 eV
redata: Require Harris convergence for SCF =       F
redata: DM Harris energy tolerance for SCF =       0.000100 eV
redata: Using Saved Data (generic)         =       F
redata: Use continuation files for DM      =       T
redata: Neglect nonoverlap interactions    =       F
redata: Method of Calculation              =     Diagonalization
redata: Divide and Conquer                 =       T
redata: Electronic Temperature             =       0.0019  Ry
redata: Fix the spin of the system         =       F
redata: Dynamics option                    =     Verlet MD run
redata: Initial MD time step               =       1
redata: Final MD time step                 =       1
redata: Length of MD time step             =       1.0000  fs
redata: Initial Temperature of MD run      =       0.0000  K
redata: Perform a MD quench                =       F
redata: ***********************************************************************

Total number of electrons:   352.000000
Total ionic charge:   352.000000

* ProcessorY, Blocksize:    8   3

k-point displ. along   1 input, could be:     0.00    0.50
k-point displ. along   2 input, could be:     0.00    0.50
k-point displ. along   3 input, could be:     0.00    0.50
 Kpoints in:          176 . Kpoints trimmed:          172

siesta: k-grid: Number of k-points =   172
siesta: k-grid: Cutoff (effective) =    16.672 Ang
siesta: k-grid: Supercell and displacements
siesta: k-grid:    4   0   0      0.000
siesta: k-grid:    0   4   0      0.000
siesta: k-grid:    0   0  20      0.000
siesta: overlap:  rmaxh   veclen  direction
siesta: overlap:  20.0465 15.7528   1
siesta: overlap:  rmaxh   veclen  direction
siesta: overlap:  20.0465 15.7528   2
siesta: overlap:  rmaxh   veclen  direction
siesta: overlap:  20.0465 15.7528   3
Naive supercell factors:     3    3    3

superc: Internal auxiliary supercell:     3 x     3 x     3  =      27
superc: Number of atoms, orbitals, and projectors:    864   5184  13824

* Maximum dynamic memory allocated =     2 MB

siesta:                 ===============================
                            Begin MD step =      1
                        ===============================

superc: Internal auxiliary supercell:     3 x     3 x     3  =      27
superc: Number of atoms, orbitals, and projectors:    864   5184  13824

outcell: Unit cell vectors (Ang):
        8.336000    0.000000    0.000000
        0.000000    8.336000    0.000000
        0.000000    0.000000    8.336000

outcell: Cell vector modules (Ang)   :    8.336000    8.336000    8.336000
outcell: Cell angles (23,13,12) (deg):     90.0000     90.0000     90.0000
outcell: Cell volume (Ang**3)        :    579.2594
New_DM. Step:     1
Initializing Density Matrix...

InitMesh: MESH =    72 x    72 x    72 =      373248
InitMesh: Mesh cutoff (required, used) =   200.000   206.182 Ry

* Maximum dynamic memory allocated =    18 MB

stepf: Fermi-Dirac step function

siesta: Program's energy decomposition (eV):
siesta: Ebs     =     -2469.068477
siesta: Eions   =     38560.014795
siesta: Ena     =      2136.575095
siesta: Ekin    =     21561.171304
siesta: Enl     =     -8293.747949
siesta: DEna    =         0.000008
siesta: DUscf   =         0.000000
siesta: DUext   =         0.000000
siesta: Exc     =    -13379.013585
siesta: eta*DQ  =         0.000000
siesta: Emadel  =         0.000000
siesta: Emeta   =         0.000000
siesta: Emolmec =         0.000000
siesta: Ekinion =         0.000000
siesta: Eharris =    -36478.939654
siesta: Etot    =    -36535.029921
siesta: FreeEng =    -36535.029921

siesta: iscf   Eharris(eV)      E_KS(eV)   FreeEng(eV)   dDmax  Ef(eV)
siesta:    1   -36478.9397   -36535.0299   -36535.0299  0.1427 -2.3786
timer: Routine,Calls,Time,% = IterSCF        1     938.387  98.81
elaps: Routine,Calls,Wall,% = IterSCF        1      14.741  98.81
siesta:    2   -36478.8646   -36478.8510   -36478.8645  0.0107 -2.4691
siesta:    3   -36478.8644   -36479.1095   -36479.1230  0.0088 -2.4674
siesta:    4   -36478.8632   -36478.8614   -36478.8749  0.0000 -2.4577
siesta:    5   -36478.8628   -36478.8623   -36478.8758  0.0000 -2.4577
siesta:    6   -36478.8632   -36478.8631   -36478.8766  0.0000 -2.4577
siesta:    7   -36478.8632   -36478.8631   -36478.8766  0.0000 -2.4577

siesta: E_KS(eV) =           -36478.8631

siesta: E_KS - E_eggbox =    -36478.8631

siesta: Atomic forces (eV/Ang):
     1    0.000030    0.000040    0.000045
     2    0.000033   -0.000000    0.000027
     3    0.000017   -0.000000    0.000025
     4    0.000006    0.000005    0.000012
     5    0.000013    0.000036    0.000042
     6    0.000020   -0.000002    0.000028
     7    0.000017   -0.000001    0.000026
     8    0.000003    0.000004    0.000013
     9    0.000053   -0.000001    0.000022
    10    0.000017    0.000009    0.000001
    11    0.000011    0.000054    0.000028
    12    0.000028   -0.000001    0.000022
    13    0.000025   -0.000001    0.000020
    14    0.000004    0.000005    0.000003
    15    0.000012    0.000039    0.000015
    16    0.000014   -0.000001    0.000013
    17    0.000040    0.000052    0.000022
    18    0.000054   -0.000002    0.000020
    19    0.000027   -0.000001    0.000020
    20    0.000005    0.000005    0.000003
    21    0.000009    0.000055    0.000030
    22    0.000026   -0.000002    0.000025
    23    0.000014   -0.000000    0.000012
    24    0.000002    0.000003   -0.000001
    25    0.000029    0.000001    0.000015
    26    0.000009    0.000002    0.000002
    27    0.000010    0.000032    0.000025
    28    0.000028   -0.000001    0.000023
    29    0.000027   -0.000001    0.000020
    30    0.000005    0.000006    0.000003
    31    0.000007    0.000025    0.000016
    32    0.000017   -0.000002    0.000013
----------------------------------------
   Tot    0.000611    0.000360    0.000589
----------------------------------------
   Max    0.000055
   Res    0.000022    sqrt( Sum f_i^2 / 3N )
----------------------------------------
   Max    0.000055    constrained

Stress-tensor-Voigt (kbar):      -33.32      -33.32      -32.35       -0.00       -0.00       -0.00
(Free)E + p*V (eV/cell)   -36466.9464
Target enthalpy (eV/cell)   -36478.8765

siesta: Stress tensor (static) (eV/Ang**3):
        -0.020797   -0.000000   -0.000000
        -0.000000   -0.020797   -0.000000
        -0.000000   -0.000000   -0.020193

siesta: Pressure (static):         32.99801877  kBar

siesta: Stress tensor (total) (eV/Ang**3):
        -0.020797   -0.000000   -0.000000
        -0.000000   -0.020797   -0.000000
        -0.000000   -0.000000   -0.020193

siesta: Pressure (total):         32.99801877  kBar
 
mulliken: Atomic and Orbital Populations:

Species: Au                  
Atom  Qatom  Qorb
               6s      5dxy    5dyz    5dz2    5dxz    5dx2-y2 
   1 11.000   1.216   1.945   1.945   1.975   1.945   1.975
   2 11.000   1.216   1.945   1.945   1.975   1.945   1.975
   3 11.000   1.216   1.945   1.945   1.975   1.945   1.975
   4 11.000   1.216   1.945   1.945   1.975   1.945   1.975
   5 11.000   1.216   1.945   1.945   1.975   1.945   1.975
   6 11.000   1.216   1.945   1.945   1.975   1.945   1.975
   7 11.000   1.216   1.945   1.945   1.975   1.945   1.975
   8 11.000   1.216   1.945   1.945   1.975   1.945   1.975
   9 11.000   1.216   1.945   1.945   1.975   1.945   1.975
  10 11.000   1.216   1.945   1.945   1.975   1.945   1.975
  11 11.000   1.216   1.945   1.945   1.975   1.945   1.975
  12 11.000   1.216   1.945   1.945   1.975   1.945   1.975
  13 11.000   1.216   1.945   1.945   1.975   1.945   1.975
  14 11.000   1.216   1.945   1.945   1.975   1.945   1.975
  15 11.000   1.216   1.945   1.945   1.975   1.945   1.975
  16 11.000   1.216   1.945   1.945   1.975   1.945   1.975
  17 11.000   1.216   1.945   1.945   1.975   1.945   1.975
  18 11.000   1.216   1.945   1.945   1.975   1.945   1.975
  19 11.000   1.216   1.945   1.945   1.975   1.945   1.975
  20 11.000   1.216   1.945   1.945   1.975   1.945   1.975
  21 11.000   1.216   1.945   1.945   1.975   1.945   1.975
  22 11.000   1.216   1.945   1.945   1.975   1.945   1.975
  23 11.000   1.216   1.945   1.945   1.975   1.945   1.975
  24 11.000   1.216   1.945   1.945   1.975   1.945   1.975
  25 11.000   1.216   1.945   1.945   1.975   1.945   1.975
  26 11.000   1.216   1.945   1.945   1.975   1.945   1.975
  27 11.000   1.216   1.945   1.945   1.975   1.945   1.975
  28 11.000   1.216   1.945   1.945   1.975   1.945   1.975
  29 11.000   1.216   1.945   1.945   1.975   1.945   1.975
  30 11.000   1.216   1.945   1.945   1.975   1.945   1.975
  31 11.000   1.216   1.945   1.945   1.975   1.945   1.975
  32 11.000   1.216   1.945   1.945   1.975   1.945   1.975

mulliken: Qtot =      352.000

siesta: Temp_ion =       0.000 K

* Maximum dynamic memory allocated =    18 MB

coxmol: Writing XMOL coordinates into file bulk.xyz                                                        

siesta: Program's energy decomposition (eV):
siesta: Ebs     =     -2503.310416
siesta: Eions   =     38560.014795
siesta: Ena     =      2136.575095
siesta: Ekin    =     21487.839252
siesta: Enl     =     -8200.922574
siesta: DEna    =        23.745871
siesta: DUscf   =         0.096505
siesta: DUext   =         0.000000
siesta: Exc     =    -13366.182433
siesta: eta*DQ  =         0.000000
siesta: Emadel  =         0.000000
siesta: Emeta   =         0.000000
siesta: Emolmec =         0.000000
siesta: Ekinion =         0.000000
siesta: Eharris =    -36478.863166
siesta: Etot    =    -36478.863079
siesta: FreeEng =    -36478.876545

siesta: Final energy (eV):
siesta:  Band Struct. =   -2503.310416
siesta:       Kinetic =   21487.839252
siesta:       Hartree =    3784.891760
siesta:    Ext. field =       0.000000
siesta:   Exch.-corr. =  -13366.182433
siesta:  Ion-electron =  -24189.330795
siesta:       Ion-ion =  -24196.080863
siesta:       Ekinion =       0.000000
siesta:         Total =  -36478.863079

siesta: Stress tensor (static) (eV/Ang**3):
siesta:    -0.020797   -0.000000   -0.000000
siesta:    -0.000000   -0.020797   -0.000000
siesta:    -0.000000   -0.000000   -0.020193

siesta: Cell volume =        579.259437 Ang**3

siesta: Pressure (static):
siesta:                Solid            Molecule  Units
siesta:           0.00022431          0.00022432  Ry/Bohr**3
siesta:           0.02059552          0.02059655  eV/Ang**3
siesta:          32.99801877         32.99966683  kBar
(Free)E+ p_basis*V_orbitals  =      -36466.707863
(Free)Eharris+ p_basis*V_orbitals  =      -36466.707923

SMEAGOL: The transport is along the z direction.

* Maximum dynamic memory allocated : Node    0 =    18 MB
* Maximum dynamic memory allocated : Node    1 =    18 MB
* Maximum dynamic memory allocated : Node    2 =    18 MB
* Maximum dynamic memory allocated : Node    3 =    18 MB
* Maximum dynamic memory allocated : Node    4 =    18 MB
* Maximum dynamic memory allocated : Node    5 =    18 MB
* Maximum dynamic memory allocated : Node    6 =    18 MB
* Maximum dynamic memory allocated : Node    7 =    18 MB
* Maximum dynamic memory allocated : Node    8 =    18 MB
* Maximum dynamic memory allocated : Node    9 =    18 MB
* Maximum dynamic memory allocated : Node   10 =    18 MB
* Maximum dynamic memory allocated : Node   11 =    18 MB
* Maximum dynamic memory allocated : Node   12 =    18 MB
* Maximum dynamic memory allocated : Node   13 =    18 MB
* Maximum dynamic memory allocated : Node   14 =    18 MB
* Maximum dynamic memory allocated : Node   15 =    18 MB
* Maximum dynamic memory allocated : Node   16 =    18 MB
* Maximum dynamic memory allocated : Node   17 =    18 MB
* Maximum dynamic memory allocated : Node   18 =    18 MB
* Maximum dynamic memory allocated : Node   19 =    18 MB
* Maximum dynamic memory allocated : Node   20 =    18 MB
* Maximum dynamic memory allocated : Node   21 =    18 MB
* Maximum dynamic memory allocated : Node   22 =    18 MB
* Maximum dynamic memory allocated : Node   23 =    18 MB
* Maximum dynamic memory allocated : Node   24 =    18 MB
* Maximum dynamic memory allocated : Node   25 =    18 MB
* Maximum dynamic memory allocated : Node   26 =    18 MB
* Maximum dynamic memory allocated : Node   27 =    18 MB
* Maximum dynamic memory allocated : Node   28 =    18 MB
* Maximum dynamic memory allocated : Node   29 =    18 MB
* Maximum dynamic memory allocated : Node   30 =    18 MB
* Maximum dynamic memory allocated : Node   31 =    18 MB
* Maximum dynamic memory allocated : Node   32 =    18 MB
* Maximum dynamic memory allocated : Node   33 =    18 MB
* Maximum dynamic memory allocated : Node   34 =    18 MB
* Maximum dynamic memory allocated : Node   35 =    18 MB
* Maximum dynamic memory allocated : Node   36 =    18 MB
* Maximum dynamic memory allocated : Node   37 =    17 MB
* Maximum dynamic memory allocated : Node   38 =    17 MB
* Maximum dynamic memory allocated : Node   39 =    17 MB
* Maximum dynamic memory allocated : Node   40 =    18 MB
* Maximum dynamic memory allocated : Node   41 =    18 MB
* Maximum dynamic memory allocated : Node   42 =    18 MB
* Maximum dynamic memory allocated : Node   43 =    18 MB
* Maximum dynamic memory allocated : Node   44 =    17 MB
* Maximum dynamic memory allocated : Node   45 =    17 MB
* Maximum dynamic memory allocated : Node   46 =    17 MB
* Maximum dynamic memory allocated : Node   47 =    17 MB
* Maximum dynamic memory allocated : Node   48 =    18 MB
* Maximum dynamic memory allocated : Node   49 =    18 MB
* Maximum dynamic memory allocated : Node   50 =    18 MB
* Maximum dynamic memory allocated : Node   51 =    18 MB
* Maximum dynamic memory allocated : Node   52 =    17 MB
* Maximum dynamic memory allocated : Node   53 =    17 MB
* Maximum dynamic memory allocated : Node   54 =    17 MB
* Maximum dynamic memory allocated : Node   55 =    17 MB
* Maximum dynamic memory allocated : Node   56 =    18 MB
* Maximum dynamic memory allocated : Node   57 =    18 MB
* Maximum dynamic memory allocated : Node   58 =    18 MB
* Maximum dynamic memory allocated : Node   59 =    18 MB
* Maximum dynamic memory allocated : Node   60 =    17 MB
* Maximum dynamic memory allocated : Node   61 =    17 MB
* Maximum dynamic memory allocated : Node   62 =    17 MB
* Maximum dynamic memory allocated : Node   63 =    17 MB

* Maximum memory occured during matrixMtoO                    

timer: CPU execution times:
timer:  Routine       Calls   Time/call    Tot.time        %
timer:  siesta            1    6281.283    6281.283   100.00
timer:  Setup             1       7.811       7.811     0.12
timer:  bands             1       0.022       0.022     0.00
timer:  writewave         1       0.052       0.052     0.00
timer:  KSV_init          1       0.007       0.007     0.00
timer:  IterMD            1    6181.124    6181.124    98.41
timer:  hsparse           1       0.353       0.353     0.01
timer:  overlap           1       1.414       1.414     0.02
timer:  IterSCF           7     878.649    6150.542    97.92
timer:  kinefsm           2       0.605       1.211     0.02
timer:  nlefsm            2      14.098      28.196     0.45
timer:  DHSCF             9       9.502      85.519     1.36
timer:  DHSCF1            1       2.785       2.785     0.04
timer:  DHSCF2            1      26.336      26.336     0.42
timer:  REORD            78       0.001       0.054     0.00
timer:  POISON           10       0.075       0.754     0.01
timer:  DHSCF3            9       5.520      49.677     0.79
timer:  rhoofd            9       1.060       9.537     0.15
timer:  cellXC            9       0.083       0.748     0.01
timer:  vmat              8       3.986      31.890     0.51
timer:  MolMec            2       0.000       0.001     0.00
timer:  diagon            7     864.745    6053.215    96.37
timer:  c-eigval       1204       2.420    2914.214    46.40
timer:  c-buildHS      1204       0.003       3.981     0.06
timer:  cdiag          2408       2.441    5878.812    93.59
timer:  cdiag1         2408       0.130     311.937     4.97
timer:  cdiag2         2408       1.040    2504.983    39.88
timer:  cdiag3         2408       1.214    2924.501    46.56
timer:  cdiag4         2408       0.041      98.152     1.56
timer:  c-eigvec       1204       2.470    2973.332    47.34
timer:  c-buildD       1204       0.133     159.857     2.54
timer:  DHSCF4            1       6.608       6.608     0.11
timer:  dfscf             1       2.337       2.337     0.04
timer:  overfsm           1       0.065       0.065     0.00
timer:  optical           1       3.923       3.923     0.06
  

elaps: ELAPSED times:
elaps:  Routine       Calls   Time/call    Tot.time        %
elaps:  siesta            1      98.668      98.668   100.00
elaps:  Setup             1       0.122       0.122     0.12
elaps:  bands             1       0.000       0.000     0.00
elaps:  writewave         1       0.001       0.001     0.00
elaps:  KSV_init          1       0.000       0.000     0.00
elaps:  IterMD            1      97.096      97.096    98.41
elaps:  hsparse           1       0.006       0.006     0.01
elaps:  overlap           1       0.020       0.020     0.02
elaps:  IterSCF           7      13.803      96.619    97.92
elaps:  kinefsm           2       0.008       0.017     0.02
elaps:  nlefsm            2       0.271       0.542     0.55
elaps:  DHSCF             9       0.150       1.353     1.37
elaps:  DHSCF1            1       0.044       0.044     0.05
elaps:  DHSCF2            1       0.412       0.412     0.42
elaps:  REORD            78       0.000       0.001     0.00
elaps:  POISON           10       0.001       0.012     0.01
elaps:  DHSCF3            9       0.087       0.779     0.79
elaps:  rhoofd            9       0.023       0.209     0.21
elaps:  cellXC            9       0.001       0.012     0.01
elaps:  vmat              8       0.062       0.499     0.51
elaps:  MolMec            2       0.000       0.000     0.00
elaps:  diagon            7      13.585      95.093    96.38
elaps:  c-eigval       1204       0.038      45.789    46.41
elaps:  c-buildHS      1204       0.000       0.074     0.07
elaps:  cdiag          2408       0.038      92.249    93.49
elaps:  cdiag1         2408       0.002       5.739     5.82
elaps:  cdiag2         2408       0.016      38.213    38.73
elaps:  cdiag3         2408       0.019      46.284    46.91
elaps:  cdiag4         2408       0.001       1.521     1.54
elaps:  c-eigvec       1204       0.039      46.626    47.25
elaps:  c-buildD       1204       0.002       2.538     2.57
elaps:  DHSCF4            1       0.116       0.116     0.12
elaps:  dfscf             1       0.044       0.044     0.04
elaps:  overfsm           1       0.001       0.001     0.00
elaps:  optical           1       0.000       0.000     0.00
  
>> End of run:   3-NOV-2023  11:49:46
