Siesta Version: ismeagol.1.0
Architecture  : thomas-intel2017update1-intelmpi-mkl
Compiler flags: mpif90 -O2 -fPIC -g -ftree-vectorize -xHost
PARALLEL version

* Running on   64 nodes in parallel
>> Start of run:   3-NOV-2023  11:51:23

                           ***********************       
                           *  WELCOME TO SIESTA  *       
                           ***********************       

reinit: Reading from standard input
************************** Dump of input data file ****************************
SystemName                   0V          # Descriptive name of the system
SystemLabel                     0V               # Short name for naming files
NumberOfAtoms    96
NumberOfSpecies                 1               # Number of species
PAO.BasisType                   split
%block ChemicalSpeciesLabel
1 79 Au
%endblock ChemicalSpeciesLabel
%block PAO.Basis
  Au  2
n=6  0  1
6.500
1.00
n=5  2  1
5.850
1.00
%endblock PAO.Basis
%block PS.lmax
 Au   3
%endblock PS.lmax
LatticeConstant 1.000 Ang
%block LatticeVectors
   8.336     0.000   0.000        1
  0.000    8.336     0.000   1
  0.000   0.000    33.926  1
%endblock LatticeVectors
AtomicCoordinatesFormat Ang
%block AtomicCoordinatesAndAtomicSpecies
0.0 0.0 0.0 1 Au
0.0 4.168 0.0 1 Au
2.084 2.084 0.0 1 Au
2.084 6.252 0.0 1 Au
4.168 0.0 0.0 1 Au
4.168 4.168 0.0 1 Au
6.252 2.084 0.0 1 Au
6.252 6.252 0.0 1 Au
0.0 2.084 2.084 1 Au
0.0 6.252 2.084 1 Au
2.084 0.0 2.084 1 Au
2.084 4.168 2.084 1 Au
4.168 2.084 2.084 1 Au
4.168 6.252 2.084 1 Au
6.252 0.0 2.084 1 Au
6.252 4.168 2.084 1 Au
0.0 0.0 4.168 1 Au
0.0 4.168 4.168 1 Au
2.084 2.084 4.168 1 Au
2.084 6.252 4.168 1 Au
4.168 0.0 4.168 1 Au
4.168 4.168 4.168 1 Au
6.252 2.084 4.168 1 Au
6.252 6.252 4.168 1 Au
0.0 2.084 6.252 1 Au
0.0 6.252 6.252 1 Au
2.084 0.0 6.252 1 Au
2.084 4.168 6.252 1 Au
4.168 2.084 6.252 1 Au
4.168 6.252 6.252 1 Au
6.252 0.0 6.252 1 Au
6.252 4.168 6.252 1 Au
0.0 0.0 8.336 1 Au
0.0 4.168 8.336 1 Au
2.084 2.084 8.336 1 Au
2.084 6.252 8.336 1 Au
4.168 0.0 8.336 1 Au
4.168 4.168 8.336 1 Au
6.252 2.084 8.336 1 Au
6.252 6.252 8.336 1 Au
0.0 2.084 10.42 1 Au
0.0 6.252 10.42 1 Au
2.084 0.0 10.42 1 Au
2.084 4.168 10.42 1 Au
4.168 2.084 10.42 1 Au
4.168 6.252 10.42 1 Au
6.252 0.0 10.42 1 Au
6.252 4.168 10.42 1 Au
0.0 0.0 21.422 1 Au
0.0 4.168 21.422 1 Au
2.084 2.084 21.422 1 Au
2.084 6.252 21.422 1 Au
4.168 0.0 21.422 1 Au
4.168 4.168 21.422 1 Au
6.252 2.084 21.422 1 Au
6.252 6.252 21.422 1 Au
0.0 2.084 23.506 1 Au
0.0 6.252 23.506 1 Au
2.084 0.0 23.506 1 Au
2.084 4.168 23.506 1 Au
4.168 2.084 23.506 1 Au
4.168 6.252 23.506 1 Au
6.252 0.0 23.506 1 Au
6.252 4.168 23.506 1 Au
0.0 0.0 25.59 1 Au
0.0 4.168 25.59 1 Au
2.084 2.084 25.59 1 Au
2.084 6.252 25.59 1 Au
4.168 0.0 25.59 1 Au
4.168 4.168 25.59 1 Au
6.252 2.084 25.59 1 Au
6.252 6.252 25.59 1 Au
0.0 2.084 27.674 1 Au
0.0 6.252 27.674 1 Au
2.084 0.0 27.674 1 Au
2.084 4.168 27.674 1 Au
4.168 2.084 27.674 1 Au
4.168 6.252 27.674 1 Au
6.252 0.0 27.674 1 Au
6.252 4.168 27.674 1 Au
0.0 0.0 29.758 1 Au
0.0 4.168 29.758 1 Au
2.084 2.084 29.758 1 Au
2.084 6.252 29.758 1 Au
4.168 0.0 29.758 1 Au
4.168 4.168 29.758 1 Au
6.252 2.084 29.758 1 Au
6.252 6.252 29.758 1 Au
0.0 2.084 31.842 1 Au
0.0 6.252 31.842 1 Au
2.084 0.0 31.842 1 Au
2.084 4.168 31.842 1 Au
4.168 2.084 31.842 1 Au
4.168 6.252 31.842 1 Au
6.252 0.0 31.842 1 Au
6.252 4.168 31.842 1 Au
%endblock AtomicCoordinatesAndAtomicSpecies 	
%block kgrid_Monkhorst_Pack
  4   0   0     0.0
  0   4   0     0.0
  0   0   1     0.0
%endblock kgrid_Monkhorst_Pack
xc.functional		LDA		# 'LDA', 'GGA'
xc.authors 	 		CA		# 'CA'='PZ', 'PW92', 'PBE'
SpinPolarized			F		# 'T', 'F'		
#FixSpin           F
#TotalSpin        0.0
NonCollinearSpin		F		# 'T', 'F'
MeshCutoff 	 		    200 Ry		# Equivalent plane wave cutoff for the grid
MaxSCFIterations		500
DM.MixingWeight			0.1
DM.NumberPulay			4	# Pulay convergency accelerator
DM.MixSCF1			    T
MixHamiltonian      T
DM.PulayOnFile			F		# Store in memory ('F') or in files ('T')
#DM.NumberKick         30
#DM.KickMixingWeight   0.1
DM.Tolerance 		1.0E-4
NeglNonOverlapInt		F		# 'F'=do not neglect
SolutionMethod			diagon
ElectronicTemperature		300 K		# Default value
DM.UseSaveDM 			T
#MD.UseSaveXV			T
#MD.UseSaveCG			T
WriteForces      T
WriteCoorXmol			T		# Write Atoms coordinates
SaveElectrostaticPotential      T
#SaveHS				T		# Save the Hamiltonian and Overlap matrices
SaveRho				T		# Save the valence pseudocharge density
#SaveDeltaRho			T
#WriteDenchar			T		# Write Denchar output
WriteMullikenPop		0 #write mulliken population of aromic and orbital charges
#-----
#smeagol
#-----
# Perform a transport calculation
EMTransport              T
# Set number of energy points for integrals
NEnergReal               64
# Set bias range
VInitial             0.0 eV
VFinal               0.0 eV
NIVPoints                0
# General variables
Delta                    1e-4
EnergLowestBound    -100.0 eV
# Print transmission coefficient
TrCoefficients           T
InitTransmRange      -10.0 eV
FinalTransmRange      10.0 eV
NTransmPoints            800
TRC.EMDOS                T
TRC.LeadsDOS             T
# Matching of Hartree potential with the leads
HartreeLeadsBottom  -15.24963856 eV
%block SaveBiasSteps
 0
%endblock SaveBiasSteps
************************** End of input data file *****************************

reinit: -----------------------------------------------------------------------
reinit: System Name: 0V
reinit: -----------------------------------------------------------------------
reinit: System Label: 0V                                                          
reinit: -----------------------------------------------------------------------

initatom: Reading input for the pseudopotentials and atomic orbitals ----------
 Species number:            1  Label: Au Atomic number:          79
Ground state valence configuration:   6s01  5d10
Reading pseudopotential information in formatted form from Au.psf

Pseudopotential generated from a relativistic atomic calculation
There are spin-orbit pseudopotentials available
Spin-orbit interaction is not included in this calculation

Valence configuration for pseudopotential generation:
6s( 1.00) rc: 2.18
6p( 0.00) rc: 2.47
5d(10.00) rc: 1.79
5f( 0.00) rc: 2.00
relmxkb: Read Max KB Ang. Momentum=    3 for species Au
 Warning: Empty PAO shell. l =           1
 Will have a KB projector anyway...

<basis_specs>
===============================================================================
Au                   Z=  79    Mass=  196.97        Charge= 0.17977+309
Lmxo=2 Lmxkb= 3    BasisType=split      Semic=F
L=0  Nsemic=0  Cnfigmx=6
          n=1  nzeta=1  polorb=0
            splnorm:   0.15000    
               vcte:    0.0000    
               rinn:    0.0000    
                rcs:    6.5000    
            lambdas:    1.0000    
L=1  Nsemic=0  Cnfigmx=6
L=2  Nsemic=0  Cnfigmx=5
          n=1  nzeta=1  polorb=0
            splnorm:   0.15000    
               vcte:    0.0000    
               rinn:    0.0000    
                rcs:    5.8500    
            lambdas:    1.0000    
-------------------------------------------------------------------------------
L=0  Nkbl=1  erefs: 0.17977+309
L=1  Nkbl=1  erefs: 0.17977+309
L=2  Nkbl=1  erefs: 0.17977+309
L=3  Nkbl=1  erefs: 0.17977+309
===============================================================================
</basis_specs>

atom: Called for Au                    (Z =  79)

read_vps: Pseudopotential generation method:
read_vps: ATM3      Troullier-Martins                       
Total valence charge:   11.00000

read_vps: Pseudopotential includes a core correction:
read_vps: Pseudo-core for xc-correction

xc_check: Exchange-correlation functional:
xc_check: Ceperley-Alder
V l=0 = -2*Zval/r beyond r=  2.9833
V l=1 = -2*Zval/r beyond r=  2.9833
V l=2 = -2*Zval/r beyond r=  2.9833
V l=3 = -2*Zval/r beyond r=  2.9833
All V_l potentials equal beyond r=  2.4425
This should be close to max(r_c) in ps generation
All pots = -2*Zval/r beyond r=  2.9833

VLOCAL1: 99.0% of the norm of Vloc inside      7.276 Ry
VLOCAL1: 99.9% of the norm of Vloc inside     16.582 Ry
atom: Maximum radius for 4*pi*r*r*local-pseudopot. charge    2.94627
atom: Maximum radius for r*vlocal+2*Zval:    2.60007
GHOST: No ghost state for L =  0
GHOST: No ghost state for L =  1
GHOST: No ghost state for L =  2
GHOST: No ghost state for L =  3

KBgen: Kleinman-Bylander projectors: 
   l= 0   rc=  3.175745   el= -0.445638   Ekb=  5.072790   kbcos=  0.276607
   l= 1   rc=  3.256140   el= -0.066324   Ekb=  2.703235   kbcos=  0.227171
   l= 2   rc=  3.020861   el= -0.526103   Ekb= -4.704026   kbcos= -0.643795
   l= 3   rc=  3.466145   el=  0.003438   Ekb= -2.516122   kbcos= -0.010529

KBgen: Total number of  Kleinman-Bylander projectors:   16
atom: -------------------------------------------------------------------------

atom: SANKEY-TYPE ORBITALS:

SPLIT: Orbitals with angular momentum L= 0

SPLIT: Basis orbitals for state 6s

   izeta = 1
                 lambda =    1.000000
                     rc =    6.557093
                 energy =   -0.435455
                kinetic =    0.389259
    potential(screened) =   -0.824714
       potential(ionic) =   -8.467175

SPLIT: Orbitals with angular momentum L= 2

SPLIT: Basis orbitals for state 5d

   izeta = 1
                 lambda =    1.000000
                     rc =    5.933100
                 energy =   -0.524775
                kinetic =    4.913203
    potential(screened) =   -5.437978
       potential(ionic) =  -15.883506
atom: Total number of Sankey-type orbitals:  6

atm_pop: Valence configuration (for local Pseudopot. screening):
 6s( 1.00)                                                            
 6p( 0.00)                                                            
 5d(10.00)                                                            
Vna: chval, zval:   11.00000  11.00000

Vna:  Cut-off radius for the neutral-atom potential:   6.557093
comcore: Pseudo-core radius Rcore=  4.027091

atom: _________________________________________________________________________

prinput: Basis input ----------------------------------------------------------

PAO.BasisType split     

%block ChemicalSpeciesLabel
    1   79 Au                      # Species index, atomic number, species label
%endblock ChemicalSpeciesLabel

%block PAO.Basis                 # Define Basis set
Au                    2                    # Species label, number of l-shells
 n=6   0   1                         # n, l, Nzeta 
   6.557   
   1.000   
 n=5   2   1                         # n, l, Nzeta 
   5.933   
   1.000   
%endblock PAO.Basis

prinput: ----------------------------------------------------------------------

coor:   Atomic-coordinates input format  =     Cartesian coordinates
coor:                                          (in Angstroms)

siesta: Atomic coordinates (Bohr) and species
siesta:      0.00000   0.00000   0.00000  1        1
siesta:      0.00000   7.87638   0.00000  1        2
siesta:      3.93819   3.93819   0.00000  1        3
siesta:      3.93819  11.81457   0.00000  1        4
siesta:      7.87638   0.00000   0.00000  1        5
siesta:      7.87638   7.87638   0.00000  1        6
siesta:     11.81457   3.93819   0.00000  1        7
siesta:     11.81457  11.81457   0.00000  1        8
siesta:      0.00000   3.93819   3.93819  1        9
siesta:      0.00000  11.81457   3.93819  1       10
siesta:      3.93819   0.00000   3.93819  1       11
siesta:      3.93819   7.87638   3.93819  1       12
siesta:      7.87638   3.93819   3.93819  1       13
siesta:      7.87638  11.81457   3.93819  1       14
siesta:     11.81457   0.00000   3.93819  1       15
siesta:     11.81457   7.87638   3.93819  1       16
siesta:      0.00000   0.00000   7.87638  1       17
siesta:      0.00000   7.87638   7.87638  1       18
siesta:      3.93819   3.93819   7.87638  1       19
siesta:      3.93819  11.81457   7.87638  1       20
siesta:      7.87638   0.00000   7.87638  1       21
siesta:      7.87638   7.87638   7.87638  1       22
siesta:     11.81457   3.93819   7.87638  1       23
siesta:     11.81457  11.81457   7.87638  1       24
siesta:      0.00000   3.93819  11.81457  1       25
siesta:      0.00000  11.81457  11.81457  1       26
siesta:      3.93819   0.00000  11.81457  1       27
siesta:      3.93819   7.87638  11.81457  1       28
siesta:      7.87638   3.93819  11.81457  1       29
siesta:      7.87638  11.81457  11.81457  1       30
siesta:     11.81457   0.00000  11.81457  1       31
siesta:     11.81457   7.87638  11.81457  1       32
siesta:      0.00000   0.00000  15.75276  1       33
siesta:      0.00000   7.87638  15.75276  1       34
siesta:      3.93819   3.93819  15.75276  1       35
siesta:      3.93819  11.81457  15.75276  1       36
siesta:      7.87638   0.00000  15.75276  1       37
siesta:      7.87638   7.87638  15.75276  1       38
siesta:     11.81457   3.93819  15.75276  1       39
siesta:     11.81457  11.81457  15.75276  1       40
siesta:      0.00000   3.93819  19.69095  1       41
siesta:      0.00000  11.81457  19.69095  1       42
siesta:      3.93819   0.00000  19.69095  1       43
siesta:      3.93819   7.87638  19.69095  1       44
siesta:      7.87638   3.93819  19.69095  1       45
siesta:      7.87638  11.81457  19.69095  1       46
siesta:     11.81457   0.00000  19.69095  1       47
siesta:     11.81457   7.87638  19.69095  1       48
siesta:      0.00000   0.00000  40.48173  1       49
siesta:      0.00000   7.87638  40.48173  1       50
siesta:      3.93819   3.93819  40.48173  1       51
siesta:      3.93819  11.81457  40.48173  1       52
siesta:      7.87638   0.00000  40.48173  1       53
siesta:      7.87638   7.87638  40.48173  1       54
siesta:     11.81457   3.93819  40.48173  1       55
siesta:     11.81457  11.81457  40.48173  1       56
siesta:      0.00000   3.93819  44.41992  1       57
siesta:      0.00000  11.81457  44.41992  1       58
siesta:      3.93819   0.00000  44.41992  1       59
siesta:      3.93819   7.87638  44.41992  1       60
siesta:      7.87638   3.93819  44.41992  1       61
siesta:      7.87638  11.81457  44.41992  1       62
siesta:     11.81457   0.00000  44.41992  1       63
siesta:     11.81457   7.87638  44.41992  1       64
siesta:      0.00000   0.00000  48.35811  1       65
siesta:      0.00000   7.87638  48.35811  1       66
siesta:      3.93819   3.93819  48.35811  1       67
siesta:      3.93819  11.81457  48.35811  1       68
siesta:      7.87638   0.00000  48.35811  1       69
siesta:      7.87638   7.87638  48.35811  1       70
siesta:     11.81457   3.93819  48.35811  1       71
siesta:     11.81457  11.81457  48.35811  1       72
siesta:      0.00000   3.93819  52.29630  1       73
siesta:      0.00000  11.81457  52.29630  1       74
siesta:      3.93819   0.00000  52.29630  1       75
siesta:      3.93819   7.87638  52.29630  1       76
siesta:      7.87638   3.93819  52.29630  1       77
siesta:      7.87638  11.81457  52.29630  1       78
siesta:     11.81457   0.00000  52.29630  1       79
siesta:     11.81457   7.87638  52.29630  1       80
siesta:      0.00000   0.00000  56.23449  1       81
siesta:      0.00000   7.87638  56.23449  1       82
siesta:      3.93819   3.93819  56.23449  1       83
siesta:      3.93819  11.81457  56.23449  1       84
siesta:      7.87638   0.00000  56.23449  1       85
siesta:      7.87638   7.87638  56.23449  1       86
siesta:     11.81457   3.93819  56.23449  1       87
siesta:     11.81457  11.81457  56.23449  1       88
siesta:      0.00000   3.93819  60.17268  1       89
siesta:      0.00000  11.81457  60.17268  1       90
siesta:      3.93819   0.00000  60.17268  1       91
siesta:      3.93819   7.87638  60.17268  1       92
siesta:      7.87638   3.93819  60.17268  1       93
siesta:      7.87638  11.81457  60.17268  1       94
siesta:     11.81457   0.00000  60.17268  1       95
siesta:     11.81457   7.87638  60.17268  1       96

siesta: System type = bulk      

initatomlists: Number of atoms, orbitals, and projectors:     96   576  1536

SMEAGOL: ******************* SMEAGOL Simulation parameters ********************
SMEAGOL:
SMEAGOL:       The following are some of the SMEAGOL parameters of the
SMEAGOL:       simulation. A complete list of the parameters used,
SMEAGOL:       including default values, can be found in file fdf.log.
SMEAGOL:
redata: Transport in extended molecule                =      T
redata: # of points in real energy axis integral      =     64
redata: # of contour points in semi-circle            =     34
redata: # of contour points in line region            =     20
redata: # of poles in the Fermi function              =      5
redata: Initial value of the bias potential           =      0.0000 Ry
redata: Final value of the bias potential             =      0.0000 Ry
redata: # of bias potential points                    =      0
redata: Small imaginary part                          =      0.00010
redata: Lower bound for the contour integral          =     -7.3498 Ry
redata: 1 = Leads with different spin                 =      0
redata: Atom of the lead where bias slope starts      =      1
redata: Atom of the lead where bias slope ends        =     96
redata: # of bulk slices to include in EM             =      1
redata: Calculate transmission coefficients           =      T
redata: Set bulk transversal cell                     =      F
redata: Bulk transversal cell size                    =      3
redata: Write leads H and S matrices at .HSL          =      F
redata: Init transport                                =      F
redata: Force super cell in z direction = 3           =      F
redata: Calculated electronic structure for           =     LR
redata: Write converged DM (at bias/MD selected step) =      F
redata: Hartree Leads Left                            =      0.0000 Bohr
redata: Hartree Leads Right                           =      0.0000 Bohr
redata: Hartree Leads Bottom                          =     -1.1208 Ry
redata: Periodic leads in perpendicular directions    =      F
redata: Thresholds at generalized SVD                 =      0.000000001000
redata: Write .orb, .ef and .gHS files                =      F
redata: Write .onlyS files                            =      F
redata: Electron-phonon interaction                   =      F
redata: Invert only central region    =      F
redata: Calculate Forces    =      F
redata: ***********************************************************************

siesta: ******************** SIESTA Simulation parameters *********************
siesta:
siesta:       The following are some of the SIESTA parameters of the
siesta:       simulation. A complete list of the parameters used,
siesta:       including default values, can be found in file fdf.log.
siesta:
redata: Non-Collinear-spin run             =       F
redata: SpinPolarized (Up/Down) run        =       F
redata: Number of spin components          =       1
redata: Long output                        =       F
redata: Number of Atomic Species           =       1
redata: Charge density info will appear in .RHO file
redata: Write Mulliken Pop.                =      NO
redata: Mesh Cutoff                        =     200.0000  Ry
redata: Net charge of the system           =       0.0000 |e|
redata: Max. number of SCF Iter            =     500
redata: Performing Pulay mixing using      =       4 iterations
redata: Mix DM in first SCF step ?         =       T
redata: Write Pulay info on disk?          =       F
redata: Discard 1st Pulay DM after kick    =       F
redata: New DM Mixing Weight               =       0.1000
redata: New DM Occupancy tolerance         =       0.000000000001
redata: No kicks to SCF
redata: DM Mixing Weight for Kicks         =       0.5000
redata: DM Tolerance for SCF               =       0.000100
redata: Require Energy convergence for SCF =       F
redata: DM Energy tolerance for SCF        =       0.000100 eV
redata: Require Harris convergence for SCF =       F
redata: DM Harris energy tolerance for SCF =       0.000100 eV
redata: Using Saved Data (generic)         =       F
redata: Use continuation files for DM      =       T
redata: Neglect nonoverlap interactions    =       F
redata: Method of Calculation              =     Diagonalization
redata: Divide and Conquer                 =       T
redata: Electronic Temperature             =       0.0019  Ry
redata: Fix the spin of the system         =       F
redata: Dynamics option                    =     Verlet MD run
redata: Initial MD time step               =       1
redata: Final MD time step                 =       1
redata: Length of MD time step             =       1.0000  fs
redata: Initial Temperature of MD run      =       0.0000  K
redata: Perform a MD quench                =       F
redata: ***********************************************************************

Total number of electrons:  1056.000000
Total ionic charge:  1056.000000

* ProcessorY, Blocksize:    8   9

k-point displ. along   1 input, could be:     0.00    0.50
k-point displ. along   2 input, could be:     0.00    0.50
 Kpoints in:           12 . Kpoints trimmed:           11

siesta: k-grid: Number of k-points =    11
siesta: k-grid: Cutoff (effective) =    16.672 Ang
siesta: k-grid: Supercell and displacements
siesta: k-grid:    4   0   0      0.000
siesta: k-grid:    0   4   0      0.000
siesta: k-grid:    0   0   1      0.000
siesta: overlap:  rmaxh   veclen  direction
siesta: overlap:  20.0465 15.7528   1
siesta: overlap:  rmaxh   veclen  direction
siesta: overlap:  20.0465 15.7528   2
siesta: overlap:  rmaxh   veclen  direction
siesta: overlap:  20.0465 64.1109   3
Naive supercell factors:     3    3    1

superc: Internal auxiliary supercell:     3 x     3 x     1  =       9
superc: Number of atoms, orbitals, and projectors:    864   5184  13824

* Maximum dynamic memory allocated =     1 MB

siesta:                 ===============================
SMEAGOL                 Bias step =    0, V =  0.000 Ry
                            Begin MD step =      1
                        ===============================

superc: Internal auxiliary supercell:     3 x     3 x     1  =       9
superc: Number of atoms, orbitals, and projectors:    864   5184  13824

outcell: Unit cell vectors (Ang):
        8.336000    0.000000    0.000000
        0.000000    8.336000    0.000000
        0.000000    0.000000   33.926000

outcell: Cell vector modules (Ang)   :    8.336000    8.336000   33.926000
outcell: Cell angles (23,13,12) (deg):     90.0000     90.0000     90.0000
outcell: Cell volume (Ang**3)        :   2357.4803
New_DM. Step:     1
Initializing Density Matrix...

InitMesh: MESH =    72 x    72 x   300 =     1555200
InitMesh: Mesh cutoff (required, used) =   200.000   206.182 Ry
SMEAGOL: average =  -1.11970, shift =  -1.12082, count =   5184
SMEAGOL: minL =   0.00000, maxR =   0.00000

* Maximum dynamic memory allocated =    28 MB

SMEAGOL: Integral method for real-axis = Traditional 

SMEAGOL: Integral method for real-axis = Traditional 

SMEAGOL: Integral method for real-axis = Traditional 

SMEAGOL: Integral method for real-axis = Traditional 

SMEAGOL: Integral method for real-axis = Traditional 

SMEAGOL: Integral method for real-axis = Traditional 

SMEAGOL: Integral method for real-axis = Traditional 

SMEAGOL: Integral method for real-axis = Traditional 

SMEAGOL: Integral method for real-axis = Traditional 

SMEAGOL: Integral method for real-axis = Traditional 

SMEAGOL: Integral method for real-axis = Traditional 

siesta: Program's energy decomposition (eV):
siesta: Ebs     =     -7405.143862
siesta: Eions   =    115680.044384
siesta: Ena     =      6422.662625
siesta: Ekin    =     64683.514008
siesta: Enl     =    -24893.125209
siesta: DEna    =         0.000000
siesta: DUscf   =         0.000000
siesta: DUext   =         0.000000
siesta: Exc     =    -40111.144532
siesta: eta*DQ  =         0.000000
siesta: Emadel  =         0.000000
siesta: Emeta   =         0.000000
siesta: Emolmec =         0.000000
siesta: Ekinion =         0.000000
siesta: Eharris =   -109442.598893
siesta: Etot    =   -109578.137491
siesta: FreeEng =   -109578.137491

siesta: iscf   Eharris(eV)      E_KS(eV)   FreeEng(eV)   dDmax  Ef(eV)
siesta:    1  -109442.5989  -109578.1375  -109578.1375  0.4462  0.0000
timer: Routine,Calls,Time,% = IterSCF        1     948.199  98.45
elaps: Routine,Calls,Wall,% = IterSCF        1      14.870  98.45
SMEAGOL: average =  -1.93456, shift =  -1.12082, count =   5184
SMEAGOL: minL =   0.00000, maxR =   0.00000
siesta:    2  -109394.1605  -109424.6136  -109424.6136  1.4201  0.0000
SMEAGOL: average =   0.27201, shift =  -1.12082, count =   5184
SMEAGOL: minL =   0.00000, maxR =   0.00000
siesta:    3  -109348.0265  -109313.2417  -109313.2417  2.7062  0.0000
SMEAGOL: average =  -1.12066, shift =  -1.12082, count =   5184
SMEAGOL: minL =   0.00000, maxR =   0.00000
siesta:    4  -109426.6392  -109424.4207  -109424.4207  0.1777  0.0000
SMEAGOL: average =  -1.16084, shift =  -1.12082, count =   5184
SMEAGOL: minL =   0.00000, maxR =   0.00000
siesta:    5  -109427.7331  -109427.6527  -109427.6527  0.0665  0.0000
SMEAGOL: average =  -1.16515, shift =  -1.12082, count =   5184
SMEAGOL: minL =   0.00000, maxR =   0.00000
siesta:    6  -109427.9216  -109427.7901  -109427.7901  0.0503  0.0000
SMEAGOL: average =  -1.17053, shift =  -1.12082, count =   5184
SMEAGOL: minL =   0.00000, maxR =   0.00000
siesta:    7  -109427.6640  -109428.0345  -109428.0345  0.0359  0.0000
SMEAGOL: average =  -1.16954, shift =  -1.12082, count =   5184
SMEAGOL: minL =   0.00000, maxR =   0.00000
siesta:    8  -109427.6739  -109427.7583  -109427.7583  0.0193  0.0000
SMEAGOL: average =  -1.17236, shift =  -1.12082, count =   5184
SMEAGOL: minL =   0.00000, maxR =   0.00000
siesta:    9  -109427.8347  -109427.7062  -109427.7062  0.0058  0.0000
SMEAGOL: average =  -1.17838, shift =  -1.12082, count =   5184
SMEAGOL: minL =   0.00000, maxR =   0.00000
siesta:   10  -109427.7811  -109427.8588  -109427.8588  0.0088  0.0000
SMEAGOL: average =  -1.17421, shift =  -1.12082, count =   5184
SMEAGOL: minL =   0.00000, maxR =   0.00000
siesta:   11  -109427.7687  -109427.7577  -109427.7577  0.0049  0.0000
SMEAGOL: average =  -1.17345, shift =  -1.12082, count =   5184
SMEAGOL: minL =   0.00000, maxR =   0.00000
siesta:   12  -109427.7649  -109427.7648  -109427.7648  0.0044  0.0000
SMEAGOL: average =  -1.17344, shift =  -1.12082, count =   5184
SMEAGOL: minL =   0.00000, maxR =   0.00000
siesta:   13  -109427.7776  -109427.7648  -109427.7648  0.0037  0.0000
SMEAGOL: average =  -1.17387, shift =  -1.12082, count =   5184
SMEAGOL: minL =   0.00000, maxR =   0.00000
siesta:   14  -109427.7916  -109427.7811  -109427.7811  0.0014  0.0000
SMEAGOL: average =  -1.17429, shift =  -1.12082, count =   5184
SMEAGOL: minL =   0.00000, maxR =   0.00000
siesta:   15  -109427.7970  -109427.7949  -109427.7949  0.0005  0.0000
SMEAGOL: average =  -1.17431, shift =  -1.12082, count =   5184
SMEAGOL: minL =   0.00000, maxR =   0.00000
siesta:   16  -109427.7982  -109427.7972  -109427.7972  0.0005  0.0000
SMEAGOL: average =  -1.17435, shift =  -1.12082, count =   5184
SMEAGOL: minL =   0.00000, maxR =   0.00000
siesta:   17  -109427.8019  -109427.7983  -109427.7983  0.0005  0.0000
SMEAGOL: average =  -1.17438, shift =  -1.12082, count =   5184
SMEAGOL: minL =   0.00000, maxR =   0.00000
siesta:   18  -109427.8033  -109427.8020  -109427.8020  0.0002  0.0000
SMEAGOL: average =  -1.17444, shift =  -1.12082, count =   5184
SMEAGOL: minL =   0.00000, maxR =   0.00000
siesta:   19  -109427.8022  -109427.8035  -109427.8035  0.0002  0.0000
SMEAGOL: average =  -1.17435, shift =  -1.12082, count =   5184
SMEAGOL: minL =   0.00000, maxR =   0.00000
siesta:   20  -109427.8021  -109427.8013  -109427.8013  0.0003  0.0000
SMEAGOL: average =  -1.17435, shift =  -1.12082, count =   5184
SMEAGOL: minL =   0.00000, maxR =   0.00000
siesta:   21  -109427.8024  -109427.8021  -109427.8021  0.0004  0.0000
SMEAGOL: average =  -1.17438, shift =  -1.12082, count =   5184
SMEAGOL: minL =   0.00000, maxR =   0.00000
siesta:   22  -109427.8036  -109427.8025  -109427.8025  0.0004  0.0000
SMEAGOL: average =  -1.17438, shift =  -1.12082, count =   5184
SMEAGOL: minL =   0.00000, maxR =   0.00000
siesta:   23  -109427.8069  -109427.8036  -109427.8036  0.0003  0.0000
SMEAGOL: average =  -1.17444, shift =  -1.12082, count =   5184
SMEAGOL: minL =   0.00000, maxR =   0.00000
siesta:   24  -109427.8069  -109427.8076  -109427.8076  0.0001  0.0000
SMEAGOL: average =  -1.17443, shift =  -1.12082, count =   5184
SMEAGOL: minL =   0.00000, maxR =   0.00000
siesta:   25  -109427.8066  -109427.8066  -109427.8066  0.0000  0.0000
SMEAGOL: average =  -1.17443, shift =  -1.12082, count =   5184
SMEAGOL: minL =   0.00000, maxR =   0.00000

SMEAGOL: InitTransmRange =  -0.73497988D+00, FinalTransmRange =   0.73497988D+00
SMEAGOL: trcde =  0.00000D+00, NeneT =   800
SMEAGOL: Ef =  -0.18063588D+00, temp =   0.19000693D-02
SMEAGOL: deltaimagtrc =   0.00000000D+00
 no. of left channels .ne. number of right channels
          19         117          19         115
 Norm :   27.7674914485130       Cond num :   1.141871871075428E-024
 warnin0_L -0.510328993202288                1
 no. of left channels .ne. number of right channels
          19         117          19         115
 Norm :   27.7674914485130       Cond num :   1.141871871075428E-024
 warnin0_R -0.510328993202288                1
 no. of left channels .ne. number of right channels
          18         118          18         116
 Norm :   82.3829263444071       Cond num :   1.291021225598798E-025
 warnin0_L -0.476719804741826                1
 no. of left channels .ne. number of right channels
          18         118          18         116
 Norm :   82.3829263444071       Cond num :   1.291021225598798E-025
 warnin0_R -0.476719804741826                1
 no. of left channels .ne. number of right channels
          10         129          10         127
 Norm :   618.844467134978       Cond num :   8.586243205113042E-026
 warnin0_L -0.572240656155772                1
 no. of left channels .ne. number of right channels
          10         129          10         127
 Norm :   618.844467134978       Cond num :   8.586243205113042E-026
 warnin0_R -0.572240656155772                1
 no. of left channels .ne. number of right channels
          14         123          14         121
 Norm :   310.738745887791       Cond num :   5.299453583263850E-026
 warnin0_L -0.538631467695310                1
 no. of left channels .ne. number of right channels
          12         119          13         128
 Norm :   163.521153744874       Cond num :   1.447087438378045E-025
 warnin0_L -0.533324753727868                1
 no. of left channels .ne. number of right channels
          14         121          14         123
 Norm :   505.794336000144       Cond num :   1.299061254340325E-026
 warnin0_L -0.563396132876703                1
 no. of left channels .ne. number of right channels
          14         123          14         121
 Norm :   310.738745887791       Cond num :   5.299453583263850E-026
 warnin0_R -0.538631467695310                1
 no. of left channels .ne. number of right channels
          12         119          13         128
 Norm :   163.521153744874       Cond num :   1.447087438378045E-025
 warnin0_R -0.533324753727868                1
 no. of left channels .ne. number of right channels
          14         121          14         123
 Norm :   505.794336000144       Cond num :   1.299061254340325E-026
 warnin0_R -0.563396132876703                1
 no. of left channels .ne. number of right channels
          23         116          21         112
 Norm :   62.7560714524376       Cond num :   2.333311464092293E-026
 warnin0_L -0.469644186118570                1
 no. of left channels .ne. number of right channels
          11         124          10         127
 Norm :   212.898785944357       Cond num :   3.514985519642753E-025
 warnin0_L -0.503253374579033                1
 no. of left channels .ne. number of right channels
          23         116          21         112
 Norm :   62.7560714524376       Cond num :   2.333311464092293E-026
 warnin0_R -0.469644186118570                1
 no. of left channels .ne. number of right channels
          11         124          10         127
 Norm :   212.898785944357       Cond num :   3.514985519642753E-025
 warnin0_R -0.503253374579033                1
 no. of left channels .ne. number of right channels
           7         130           6         129
 Norm :   104.451215812148       Cond num :   9.006091917196250E-026
 warnin0_L -0.253837818109284                1
 no. of left channels .ne. number of right channels
           7         130           6         129
 Norm :   104.451215812148       Cond num :   9.006091917196250E-026
 warnin0_R -0.253837818109284                1
 no. of left channels .ne. number of right channels
          15         127          13         121
 Norm :   5445.58218823989       Cond num :   6.081789177352498E-027
 warnin0_L -0.529786944416240                1
 no. of left channels .ne. number of right channels
          18         121          18         119
 Norm :   282.594898299745       Cond num :   6.551402797098807E-026
 warnin0_L -0.542169277006937                1
 no. of left channels .ne. number of right channels
          15         127          13         121
 Norm :   5445.58218823989       Cond num :   6.081789177352498E-027
 warnin0_R -0.529786944416240                1
 no. of left channels .ne. number of right channels
          18         121          18         119
 Norm :   282.594898299745       Cond num :   6.551402797098807E-026
 warnin0_R -0.542169277006937                1
 no. of left channels .ne. number of right channels
          21         116          23         116
 Norm :   166.611878039204       Cond num :   1.985271190288544E-025
 warnin0_L -0.450186234904618                1
 no. of left channels .ne. number of right channels
          21         116          23         116
 Norm :   166.611878039204       Cond num :   1.985271190288544E-025
 warnin0_R -0.450186234904618                1
 no. of left channels .ne. number of right channels
           6         128           6         130
 Norm :   1192.17687071762       Cond num :   6.282781053447237E-026
 warnin0_L -0.637690128420884                1
 no. of left channels .ne. number of right channels
           6         128           6         130
 Norm :   1192.17687071762       Cond num :   6.282781053447237E-026
 warnin0_R -0.637690128420884                1
 no. of left channels .ne. number of right channels
          16         118          18         118
 Norm :   82.3834398149571       Cond num :   1.456624443010009E-025
 warnin0_L -0.476719804741826                1
 no. of left channels .ne. number of right channels
          16         118          18         118
 Norm :   82.3834398149571       Cond num :   1.456624443010009E-025
 warnin0_R -0.476719804741826                1
 no. of left channels .ne. number of right channels
          14         122          17         123
 Norm :   5413.74400138426       Cond num :   4.008105913167599E-027
 warnin0_L -0.529786944416240                1
 no. of left channels .ne. number of right channels
          18         121          18         119
 Norm :   282.681847814403       Cond num :   4.207033244118358E-026
 warnin0_L -0.542169277006937                1
 no. of left channels .ne. number of right channels
          14         122          17         123
 Norm :   5413.74400138426       Cond num :   4.008105913167599E-027
 warnin0_R -0.529786944416240                1
 no. of left channels .ne. number of right channels
          18         121          18         119
 Norm :   282.681847814403       Cond num :   4.207033244118358E-026
 warnin0_R -0.542169277006937                1
 no. of left channels .ne. number of right channels
          17         123          15         121
 Norm :   694.249169229212       Cond num :   9.727119136314044E-027
 warnin0_L -0.485564328020895                1
 no. of left channels .ne. number of right channels
          17         123          15         121
 Norm :   694.249169229212       Cond num :   9.727119136314044E-027
 warnin0_R -0.485564328020895                1
 no. of left channels .ne. number of right channels
          22         116          18         116
 Norm :   41.1628081650994       Cond num :   1.584081132177801E-025
 warnin0_L -0.533324753727868                1
 no. of left channels .ne. number of right channels
          22         116          18         116
 Norm :   41.1628081650994       Cond num :   1.584081132177801E-025
 warnin0_R -0.533324753727868                1
 no. of left channels .ne. number of right channels
          10         125          10         127
 Norm :   318.197355423389       Cond num :   4.350842622483277E-026
 warnin0_L -0.494408851299964                1
 no. of left channels .ne. number of right channels
          10         125          10         127
 Norm :   318.197355423389       Cond num :   4.350842622483277E-026
 warnin0_R -0.494408851299964                1
 no. of left channels .ne. number of right channels
          20         117          19         116
 Norm :   41.1599690486679       Cond num :   1.250566873976322E-024
 warnin0_L -0.533324753727868                1
 no. of left channels .ne. number of right channels
          14         123          13         122
 Norm :   99.0173784875540       Cond num :   6.483006106591293E-025
 warnin0_L -0.607618749272049                1
 no. of left channels .ne. number of right channels
          20         117          19         116
 Norm :   41.1599690486679       Cond num :   1.250566873976322E-024
 warnin0_R -0.533324753727868                1
 no. of left channels .ne. number of right channels
          14         123          13         122
 Norm :   99.0173784875540       Cond num :   6.483006106591293E-025
 warnin0_R -0.607618749272049                1
 no. of left channels .ne. number of right channels
          10         125          10         127
 Norm :   318.203838172963       Cond num :   8.418428167577402E-026
 warnin0_L -0.494408851299964                1
 no. of left channels .ne. number of right channels
          10         125          10         127
 Norm :   318.203838172963       Cond num :   8.418428167577402E-026
 warnin0_R -0.494408851299964                1
 no. of left channels .ne. number of right channels
          12         127          12         121
 Norm :   163.506388225726       Cond num :   4.383406552181040E-025
 warnin0_L -0.533324753727868                1
 no. of left channels .ne. number of right channels
          12         127          12         121
 Norm :   163.506388225726       Cond num :   4.383406552181040E-025
 warnin0_R -0.533324753727868                1
 no. of left channels .ne. number of right channels
          12         127           9         124
 Norm :   212.941998261555       Cond num :   2.555835937302299E-025
 warnin0_L -0.503253374579033                1
 no. of left channels .ne. number of right channels
          24         113          24         111
 Norm :   62.7592545012670       Cond num :   1.678321292721123E-025
 warnin0_L -0.469644186118570                1
 no. of left channels .ne. number of right channels
          12         127           9         124
 Norm :   212.941998261555       Cond num :   2.555835937302299E-025
 warnin0_R -0.503253374579033                1
 no. of left channels .ne. number of right channels
          24         113          24         111
 Norm :   62.7592545012670       Cond num :   1.678321292721123E-025
 warnin0_R -0.469644186118570                1
 no. of left channels .ne. number of right channels
           6         129           7         130
 Norm :   104.450826478942       Cond num :   2.083226632823280E-025
 warnin0_L -0.253837818109284                1
 no. of left channels .ne. number of right channels
           6         129           7         130
 Norm :   104.450826478942       Cond num :   2.083226632823280E-025
 warnin0_R -0.253837818109284                1
 no. of left channels .ne. number of right channels
          11         127          11         123
 Norm :   318.205612919625       Cond num :   1.417540930238787E-025
 warnin0_L -0.494408851299964                1
 no. of left channels .ne. number of right channels
          11         127          11         123
 Norm :   318.205612919625       Cond num :   1.417540930238787E-025
 warnin0_R -0.494408851299964                1
 no. of left channels .ne. number of right channels
           5         140           4         139
 Norm :   4615.62695722021       Cond num :   3.632185086154188E-028
 warnin0_L -0.515635707169730                1
 no. of left channels .ne. number of right channels
           5         140           4         139
 Norm :   4615.62695722021       Cond num :   3.632185086154188E-028
 warnin0_R -0.515635707169730                1

siesta: E_KS(eV) =          -109427.8066

siesta: E_KS - E_eggbox =   -109427.8066

siesta: Atomic forces (eV/Ang):
     1    0.000026    0.000026    0.001792
     2    0.000004    0.000000    0.001794
     3    0.000000    0.000001    0.001797
     4    0.000000    0.000000    0.001793
     5    0.000007    0.000010    0.001797
     6    0.000001   -0.000001    0.001794
     7   -0.000000   -0.000000    0.001800
     8   -0.000001   -0.000001    0.001793
     9    0.000037    0.000001    0.003641
    10    0.000012    0.000010    0.003630
    11    0.000010    0.000037    0.003642
    12    0.000017    0.000000    0.003633
    13    0.000015    0.000000    0.003633
    14    0.000001    0.000008    0.003629
    15    0.000017    0.000026    0.003638
    16    0.000020   -0.000000    0.003631
    17    0.000031    0.000036    0.702780
    18    0.000033    0.000001    0.702779
    19    0.000019    0.000002    0.702778
    20   -0.000000    0.000002    0.702764
    21    0.000009    0.000033    0.702786
    22    0.000017    0.000001    0.702777
    23    0.000021    0.000000    0.702772
    24   -0.000001   -0.000003    0.702761
    25    0.000035    0.000001   -0.366190
    26    0.000014    0.000008   -0.366207
    27    0.000013    0.000034   -0.366188
    28    0.000020    0.000000   -0.366201
    29    0.000021    0.000001   -0.366202
    30    0.000005    0.000008   -0.366208
    31    0.000015    0.000025   -0.366197
    32    0.000019    0.000000   -0.366206
    33    0.000025    0.000029    0.564673
    34    0.000030    0.000001    0.564680
    35    0.000008    0.000000    0.564677
    36   -0.000007    0.000001    0.564668
    37   -0.000002    0.000032    0.564682
    38    0.000007    0.000000    0.564679
    39    0.000007    0.000000    0.564665
    40   -0.000005   -0.000006    0.564667
    41   -0.000007    0.000001   -1.930135
    42   -0.000003   -0.000005   -1.930132
    43   -0.000004   -0.000001   -1.930142
    44   -0.000009    0.000000   -1.930146
    45   -0.000009    0.000001   -1.930146
    46   -0.000004   -0.000005   -1.930132
    47   -0.000006    0.000001   -1.930135
    48   -0.000009   -0.000000   -1.930138
    49   -0.000001    0.000001    1.150455
    50   -0.000000   -0.000000    1.150452
    51    0.000002    0.000001    1.150459
    52    0.000002    0.000000    1.150450
    53    0.000005    0.000003    1.150459
    54    0.000002    0.000000    1.150458
    55    0.000003    0.000000    1.150458
    56    0.000001   -0.000001    1.150448
    57    0.000016    0.000001    0.660227
    58    0.000010    0.000003    0.660220
    59    0.000006    0.000019    0.660232
    60    0.000011    0.000000    0.660217
    61    0.000010    0.000000    0.660217
    62    0.000004    0.000003    0.660217
    63    0.000012    0.000012    0.660232
    64    0.000008   -0.000000    0.660225
    65    0.000026    0.000030   -0.541942
    66    0.000023    0.000000   -0.541941
    67    0.000019    0.000000   -0.541945
    68    0.000003    0.000012   -0.541950
    69    0.000007    0.000024   -0.541938
    70    0.000018    0.000001   -0.541943
    71    0.000024    0.000001   -0.541948
    72    0.000001    0.000004   -0.541954
    73    0.000035    0.000000    0.523944
    74    0.000014    0.000006    0.523929
    75    0.000006    0.000038    0.523947
    76    0.000011    0.000000    0.523946
    77    0.000013    0.000000    0.523947
    78   -0.000001    0.000004    0.523934
    79    0.000015    0.000031    0.523943
    80    0.000011    0.000000    0.523943
    81    0.000032    0.000035   -0.776590
    82    0.000032   -0.000000   -0.776581
    83    0.000018    0.000001   -0.776580
    84    0.000001    0.000008   -0.776595
    85    0.000011    0.000036   -0.776582
    86    0.000018    0.000001   -0.776582
    87    0.000013   -0.000000   -0.776593
    88    0.000002    0.000002   -0.776601
    89    0.000028    0.000001    0.001274
    90    0.000007    0.000024    0.001270
    91    0.000007    0.000027    0.001276
    92    0.000017    0.000000    0.001276
    93    0.000016    0.000001    0.001277
    94   -0.000002    0.000033    0.001272
    95    0.000031    0.000031    0.001268
    96    0.000048   -0.000001    0.001270
----------------------------------------
   Tot    0.001044    0.000715   -0.048807
----------------------------------------
   Max    1.930146
   Res    0.459561    sqrt( Sum f_i^2 / 3N )
----------------------------------------
   Max    1.930146    constrained

Stress-tensor-Voigt (kbar):      162.76      162.76      130.28       -0.00       -0.00       -0.00
(Free)E + p*V (eV/cell)  -109651.3682
Target enthalpy (eV/cell)  -109427.8066

siesta: Stress tensor (static) (eV/Ang**3):
         0.101588   -0.000000   -0.000000
        -0.000000    0.101588   -0.000000
        -0.000000   -0.000000    0.081317

siesta: Pressure (static):       -151.93721690  kBar

siesta: Stress tensor (total) (eV/Ang**3):
         0.101588   -0.000000   -0.000000
        -0.000000    0.101588   -0.000000
        -0.000000   -0.000000    0.081317

siesta: Pressure (total):       -151.93721690  kBar

siesta: Temp_ion =       0.000 K

* Maximum dynamic memory allocated =  2148 MB

coxmol: Writing XMOL coordinates into file 0V.xyz                                                          

siesta: Program's energy decomposition (eV):
siesta: Ebs     =     -7286.554068
siesta: Eions   =    115680.044384
siesta: Ena     =      6422.662625
siesta: Ekin    =     64396.334453
siesta: Enl     =    -24597.386123
siesta: DEna    =        90.556793
siesta: DUscf   =         1.416032
siesta: DUext   =         0.000000
siesta: Exc     =    -40061.346001
siesta: eta*DQ  =         0.000000
siesta: Emadel  =         0.000000
siesta: Emeta   =         0.000000
siesta: Emolmec =         0.000000
siesta: Ekinion =         0.000000
siesta: Eharris =   -109427.806603
siesta: Etot    =   -109427.806605
siesta: FreeEng =   -109427.806605

siesta: Final energy (eV):
siesta:  Band Struct. =   -7286.554068
siesta:       Kinetic =   64396.334453
siesta:       Hartree =  295046.627046
siesta:    Ext. field =       0.000000
siesta:   Exch.-corr. =  -40061.346001
siesta:  Ion-electron = -640474.812228
siesta:       Ion-ion =  211665.390125
siesta:       Ekinion =       0.000000
siesta:         Total = -109427.806605

siesta: Atomic forces (eV/Ang):
siesta:      1    0.000026    0.000026    0.001792
siesta:      2    0.000004    0.000000    0.001794
siesta:      3    0.000000    0.000001    0.001797
siesta:      4    0.000000    0.000000    0.001793
siesta:      5    0.000007    0.000010    0.001797
siesta:      6    0.000001   -0.000001    0.001794
siesta:      7   -0.000000   -0.000000    0.001800
siesta:      8   -0.000001   -0.000001    0.001793
siesta:      9    0.000037    0.000001    0.003641
siesta:     10    0.000012    0.000010    0.003630
siesta:     11    0.000010    0.000037    0.003642
siesta:     12    0.000017    0.000000    0.003633
siesta:     13    0.000015    0.000000    0.003633
siesta:     14    0.000001    0.000008    0.003629
siesta:     15    0.000017    0.000026    0.003638
siesta:     16    0.000020   -0.000000    0.003631
siesta:     17    0.000031    0.000036    0.702780
siesta:     18    0.000033    0.000001    0.702779
siesta:     19    0.000019    0.000002    0.702778
siesta:     20   -0.000000    0.000002    0.702764
siesta:     21    0.000009    0.000033    0.702786
siesta:     22    0.000017    0.000001    0.702777
siesta:     23    0.000021    0.000000    0.702772
siesta:     24   -0.000001   -0.000003    0.702761
siesta:     25    0.000035    0.000001   -0.366190
siesta:     26    0.000014    0.000008   -0.366207
siesta:     27    0.000013    0.000034   -0.366188
siesta:     28    0.000020    0.000000   -0.366201
siesta:     29    0.000021    0.000001   -0.366202
siesta:     30    0.000005    0.000008   -0.366208
siesta:     31    0.000015    0.000025   -0.366197
siesta:     32    0.000019    0.000000   -0.366206
siesta:     33    0.000025    0.000029    0.564673
siesta:     34    0.000030    0.000001    0.564680
siesta:     35    0.000008    0.000000    0.564677
siesta:     36   -0.000007    0.000001    0.564668
siesta:     37   -0.000002    0.000032    0.564682
siesta:     38    0.000007    0.000000    0.564679
siesta:     39    0.000007    0.000000    0.564665
siesta:     40   -0.000005   -0.000006    0.564667
siesta:     41   -0.000007    0.000001   -1.930135
siesta:     42   -0.000003   -0.000005   -1.930132
siesta:     43   -0.000004   -0.000001   -1.930142
siesta:     44   -0.000009    0.000000   -1.930146
siesta:     45   -0.000009    0.000001   -1.930146
siesta:     46   -0.000004   -0.000005   -1.930132
siesta:     47   -0.000006    0.000001   -1.930135
siesta:     48   -0.000009   -0.000000   -1.930138
siesta:     49   -0.000001    0.000001    1.150455
siesta:     50   -0.000000   -0.000000    1.150452
siesta:     51    0.000002    0.000001    1.150459
siesta:     52    0.000002    0.000000    1.150450
siesta:     53    0.000005    0.000003    1.150459
siesta:     54    0.000002    0.000000    1.150458
siesta:     55    0.000003    0.000000    1.150458
siesta:     56    0.000001   -0.000001    1.150448
siesta:     57    0.000016    0.000001    0.660227
siesta:     58    0.000010    0.000003    0.660220
siesta:     59    0.000006    0.000019    0.660232
siesta:     60    0.000011    0.000000    0.660217
siesta:     61    0.000010    0.000000    0.660217
siesta:     62    0.000004    0.000003    0.660217
siesta:     63    0.000012    0.000012    0.660232
siesta:     64    0.000008   -0.000000    0.660225
siesta:     65    0.000026    0.000030   -0.541942
siesta:     66    0.000023    0.000000   -0.541941
siesta:     67    0.000019    0.000000   -0.541945
siesta:     68    0.000003    0.000012   -0.541950
siesta:     69    0.000007    0.000024   -0.541938
siesta:     70    0.000018    0.000001   -0.541943
siesta:     71    0.000024    0.000001   -0.541948
siesta:     72    0.000001    0.000004   -0.541954
siesta:     73    0.000035    0.000000    0.523944
siesta:     74    0.000014    0.000006    0.523929
siesta:     75    0.000006    0.000038    0.523947
siesta:     76    0.000011    0.000000    0.523946
siesta:     77    0.000013    0.000000    0.523947
siesta:     78   -0.000001    0.000004    0.523934
siesta:     79    0.000015    0.000031    0.523943
siesta:     80    0.000011    0.000000    0.523943
siesta:     81    0.000032    0.000035   -0.776590
siesta:     82    0.000032   -0.000000   -0.776581
siesta:     83    0.000018    0.000001   -0.776580
siesta:     84    0.000001    0.000008   -0.776595
siesta:     85    0.000011    0.000036   -0.776582
siesta:     86    0.000018    0.000001   -0.776582
siesta:     87    0.000013   -0.000000   -0.776593
siesta:     88    0.000002    0.000002   -0.776601
siesta:     89    0.000028    0.000001    0.001274
siesta:     90    0.000007    0.000024    0.001270
siesta:     91    0.000007    0.000027    0.001276
siesta:     92    0.000017    0.000000    0.001276
siesta:     93    0.000016    0.000001    0.001277
siesta:     94   -0.000002    0.000033    0.001272
siesta:     95    0.000031    0.000031    0.001268
siesta:     96    0.000048   -0.000001    0.001270
siesta: ----------------------------------------
siesta:    Tot    0.001044    0.000715   -0.048807

siesta: Stress tensor (static) (eV/Ang**3):
siesta:     0.101588   -0.000000   -0.000000
siesta:    -0.000000    0.101588   -0.000000
siesta:    -0.000000   -0.000000    0.081317

siesta: Cell volume =       2357.480286 Ang**3

siesta: Pressure (static):
siesta:                Solid            Molecule  Units
siesta:          -0.00103283         -0.00107059  Ry/Bohr**3
siesta:          -0.09483073         -0.09829823  eV/Ang**3
siesta:        -151.93721690       -157.49283549  kBar
(Free)E+ p_basis*V_orbitals  =     -109391.300559
(Free)Eharris+ p_basis*V_orbitals  =     -109391.300586
SMEAGOL: average =  -1.17443, shift =  -1.12082, count =   5184
SMEAGOL: minL =   0.00000, maxR =   0.00000

* Maximum dynamic memory allocated : Node    0 =  2148 MB
* Maximum dynamic memory allocated : Node    1 =  2145 MB
* Maximum dynamic memory allocated : Node    2 =  2148 MB
* Maximum dynamic memory allocated : Node    3 =  2143 MB
* Maximum dynamic memory allocated : Node    4 =  2145 MB
* Maximum dynamic memory allocated : Node    5 =  2145 MB
* Maximum dynamic memory allocated : Node    6 =  2145 MB
* Maximum dynamic memory allocated : Node    7 =  2145 MB
* Maximum dynamic memory allocated : Node    8 =  2145 MB
* Maximum dynamic memory allocated : Node    9 =  2145 MB
* Maximum dynamic memory allocated : Node   10 =  2148 MB
* Maximum dynamic memory allocated : Node   11 =  2143 MB
* Maximum dynamic memory allocated : Node   12 =  2145 MB
* Maximum dynamic memory allocated : Node   13 =  2145 MB
* Maximum dynamic memory allocated : Node   14 =  2145 MB
* Maximum dynamic memory allocated : Node   15 =  2145 MB
* Maximum dynamic memory allocated : Node   16 =  2145 MB
* Maximum dynamic memory allocated : Node   17 =  2145 MB
* Maximum dynamic memory allocated : Node   18 =  2148 MB
* Maximum dynamic memory allocated : Node   19 =  2143 MB
* Maximum dynamic memory allocated : Node   20 =  2145 MB
* Maximum dynamic memory allocated : Node   21 =  2144 MB
* Maximum dynamic memory allocated : Node   22 =  2144 MB
* Maximum dynamic memory allocated : Node   23 =  2144 MB
* Maximum dynamic memory allocated : Node   24 =  2145 MB
* Maximum dynamic memory allocated : Node   25 =  2145 MB
* Maximum dynamic memory allocated : Node   26 =  2148 MB
* Maximum dynamic memory allocated : Node   27 =  2148 MB
* Maximum dynamic memory allocated : Node   28 =  2145 MB
* Maximum dynamic memory allocated : Node   29 =  2144 MB
* Maximum dynamic memory allocated : Node   30 =  2144 MB
* Maximum dynamic memory allocated : Node   31 =  2144 MB
* Maximum dynamic memory allocated : Node   32 =  2148 MB
* Maximum dynamic memory allocated : Node   33 =  2148 MB
* Maximum dynamic memory allocated : Node   34 =  2146 MB
* Maximum dynamic memory allocated : Node   35 =  2148 MB
* Maximum dynamic memory allocated : Node   36 =  2144 MB
* Maximum dynamic memory allocated : Node   37 =  2148 MB
* Maximum dynamic memory allocated : Node   38 =  2148 MB
* Maximum dynamic memory allocated : Node   39 =  2148 MB
* Maximum dynamic memory allocated : Node   40 =  2144 MB
* Maximum dynamic memory allocated : Node   41 =  2143 MB
* Maximum dynamic memory allocated : Node   42 =  2147 MB
* Maximum dynamic memory allocated : Node   43 =  2148 MB
* Maximum dynamic memory allocated : Node   44 =  2145 MB
* Maximum dynamic memory allocated : Node   45 =  2143 MB
* Maximum dynamic memory allocated : Node   46 =  2143 MB
* Maximum dynamic memory allocated : Node   47 =  2143 MB
* Maximum dynamic memory allocated : Node   48 =  2144 MB
* Maximum dynamic memory allocated : Node   49 =  2143 MB
* Maximum dynamic memory allocated : Node   50 =  2147 MB
* Maximum dynamic memory allocated : Node   51 =  2148 MB
* Maximum dynamic memory allocated : Node   52 =  2145 MB
* Maximum dynamic memory allocated : Node   53 =  2143 MB
* Maximum dynamic memory allocated : Node   54 =  2143 MB
* Maximum dynamic memory allocated : Node   55 =  2143 MB
* Maximum dynamic memory allocated : Node   56 =  2144 MB
* Maximum dynamic memory allocated : Node   57 =  2144 MB
* Maximum dynamic memory allocated : Node   58 =  2147 MB
* Maximum dynamic memory allocated : Node   59 =  2148 MB
* Maximum dynamic memory allocated : Node   60 =  2145 MB
* Maximum dynamic memory allocated : Node   61 =  2143 MB
* Maximum dynamic memory allocated : Node   62 =  2143 MB
* Maximum dynamic memory allocated : Node   63 =  2143 MB

* Maximum memory occured during keldyshReal                   

timer: CPU execution times:
timer:  Routine       Calls   Time/call    Tot.time        %
timer:  siesta            1   12695.244   12695.244   100.00
timer:  Setup             1       9.878       9.878     0.08
timer:  bands             1       0.035       0.035     0.00
timer:  writewave         1       0.101       0.101     0.00
timer:  KSV_init          1       0.014       0.014     0.00
timer:  IterMD            1   12667.569   12667.569    99.78
timer:  hsparse           1       0.815       0.815     0.01
timer:  overlap           1       2.630       2.630     0.02
timer:  IterSCF          25     146.734    3668.338    28.90
timer:  kinefsm           2       1.250       2.500     0.02
timer:  nlefsm            2      17.756      35.511     0.28
timer:  DHSCF            27      14.322     386.682     3.05
timer:  DHSCF1            1       4.015       4.015     0.03
timer:  DHSCF2            1      34.383      34.383     0.27
timer:  REORD           222       0.002       0.423     0.00
timer:  POISON           28       0.233       6.535     0.05
timer:  DHSCF3           27      12.443     335.957     2.65
timer:  rhoofd           27       2.771      74.813     0.59
timer:  cellXC           27       0.276       7.465     0.06
timer:  vmat             26       7.246     188.386     1.48
timer:  MolMec            2       0.001       0.002     0.00
timer:  emtrans          26     467.910   12165.662    95.83
timer:  NEGFK           286      41.205   11784.665    92.83
timer:  RE_SENE         297       0.000       0.120     0.00
timer:  IM_SENE          11      55.196     607.159     4.78
timer:  DHSCF4            1      12.004      12.004     0.09
timer:  dfscf             1       6.536       6.536     0.05
timer:  overfsm           1       0.135       0.135     0.00
timer:  TRANSM           11     780.818    8588.999    67.66
timer:  senetrc          11     742.627    8168.893    64.35
timer:  CURRENT          11       2.643      29.075     0.23
timer:  optical           1       4.982       4.982     0.04
  

elaps: ELAPSED times:
elaps:  Routine       Calls   Time/call    Tot.time        %
elaps:  siesta            1     198.868     198.868   100.00
elaps:  Setup             1       0.156       0.156     0.08
elaps:  bands             1       0.001       0.001     0.00
elaps:  writewave         1       0.002       0.002     0.00
elaps:  KSV_init          1       0.000       0.000     0.00
elaps:  IterMD            1     198.432     198.432    99.78
elaps:  hsparse           1       0.013       0.013     0.01
elaps:  overlap           1       0.042       0.042     0.02
elaps:  IterSCF          25       2.299      57.479    28.90
elaps:  kinefsm           2       0.020       0.040     0.02
elaps:  nlefsm            2       0.344       0.687     0.35
elaps:  DHSCF            27       0.226       6.113     3.07
elaps:  DHSCF1            1       0.065       0.065     0.03
elaps:  DHSCF2            1       0.537       0.537     0.27
elaps:  REORD           222       0.000       0.008     0.00
elaps:  POISON           28       0.004       0.105     0.05
elaps:  DHSCF3           27       0.195       5.262     2.65
elaps:  rhoofd           27       0.072       1.934     0.97
elaps:  cellXC           27       0.004       0.111     0.06
elaps:  vmat             26       0.113       2.950     1.48
elaps:  MolMec            2       0.000       0.000     0.00
elaps:  emtrans          26       7.331     190.596    95.84
elaps:  NEGFK           286       0.640     183.103    92.07
elaps:  RE_SENE         297       0.000       0.002     0.00
elaps:  IM_SENE          11       0.942      10.362     5.21
elaps:  DHSCF4            1       0.243       0.243     0.12
elaps:  dfscf             1       0.145       0.145     0.07
elaps:  overfsm           1       0.002       0.002     0.00
elaps:  TRANSM           11      12.694     139.638    70.22
elaps:  senetrc          11      12.667     139.332    70.06
elaps:  CURRENT          11       0.000       0.002     0.00
elaps:  optical           1       0.000       0.000     0.00
  
>> End of run:   3-NOV-2023  11:54:41
