ATOMS
H             3.25353201      5.72009504     18.92650888             0.00167302     -0.68752146     -0.16526176
H             3.25942971      5.72540920     19.67831184             0.00167302     -0.68752146     -0.16526176
