ATOMS
H             3.25353201      5.72009504     18.92650888            -0.00476614     -0.00511637     -0.70707221
H             3.25942971      5.72540920     19.67831184             0.00476614      0.00511637      0.70707221
