ATOMS
H             3.25353201      5.72009504     18.92650888            -0.01375911      0.70695506     -0.00502278
H             3.25942971      5.72540920     19.67831184             0.01375911     -0.70695506      0.00502278
