ATOMS
H             3.25353201      5.72009504     18.92650888             0.70710480      0.00161135      0.00045478
H             3.25942971      5.72540920     19.67831184             0.70710480      0.00161135      0.00045478
