 DBCSR| CPU Multiplication driver                                           XSMM
 DBCSR| Multrec recursion limit                                              512
 DBCSR| Multiplication stack size                                           1000
 DBCSR| Maximum elements for images                                    UNLIMITED
 DBCSR| Multiplicative factor virtual images                                   1
 DBCSR| Use multiplication densification                                       T
 DBCSR| Multiplication size stacks                                             3
 DBCSR| Use memory pool for CPU allocation                                     F
 DBCSR| Number of 3D layers                                               SINGLE
 DBCSR| Use MPI memory allocation                                              F
 DBCSR| Use RMA algorithm                                                      F
 DBCSR| Use Communication thread                                               T
 DBCSR| Communication thread load                                             87
 DBCSR| MPI: My node id                                                        0
 DBCSR| MPI: Number of nodes                                                  24
 DBCSR| OMP: Current number of threads                                         1
 DBCSR| OMP: Max number of threads                                             1
 DBCSR| Split modifier for TAS multiplication algorithm                  1.0E+00


  **** **** ******  **  PROGRAM STARTED AT               2022-10-20 12:31:38.061
 ***** ** ***  *** **   PROGRAM STARTED ON                 cn1023.scarf.rl.ac.uk
 **    ****   ******    PROGRAM STARTED BY                             scarf1157
 ***** **    ** ** **   PROGRAM PROCESS ID                                 28708
  **** **  *******  **  PROGRAM STARTED IN /work4/scd/scarf1157/work/testing/cp2
                                           k-smeagol/bdt/hollow-site/em-cp2k/geo
                                           _opt/dzp

 CP2K| version string:                 CP2K version 2022.1 (Development Version)
 CP2K| source code revision number:                                  git:8c0411e
 CP2K| cp2kflags: omp libint fftw3 libxc parallel mpi3 scalapack cosma xsmm spgl
 CP2K|            ib sirius libvori libbqb libvdwxc
 CP2K| is freely available from                            https://www.cp2k.org/
 CP2K| Program compiled at                          Thu  6 Oct 11:48:07 BST 2022
 CP2K| Program compiled on                                 cn1065.scarf.rl.ac.uk
 CP2K| Program compiled for                                                local
 CP2K| Data directory path     /home/vol07/scarf1157/code/cp2k/scarf21/cp2k/data
 CP2K| Input file name                                             2_dft_wfn.inp

 GLOBAL| Force Environment number                                              1
 GLOBAL| Basis set file name                                        BASIS_MOLOPT
 GLOBAL| Potential file name                                      GTH_POTENTIALS
 GLOBAL| MM Potential file name                                     MM_POTENTIAL
 GLOBAL| Coordinate file name                                             em.xyz
 GLOBAL| Method name                                                        CP2K
 GLOBAL| Project name                                                    dft_wfn
 GLOBAL| Run type                                                        GEO_OPT
 GLOBAL| FFT library                                                       FFTW3
 GLOBAL| Diagonalization library                                       ScaLAPACK
 GLOBAL| DGEMM library                                                      BLAS
 GLOBAL| Orthonormality check for eigenvectors                          DISABLED
 GLOBAL| Matrix multiplication library                                     COSMA
 GLOBAL| All-to-all communication in single precision                          F
 GLOBAL| FFTs using library dependent lengths                                  T
 GLOBAL| Grid backend                                                       AUTO
 GLOBAL| Global print level                                               MEDIUM
 GLOBAL| MPI I/O enabled                                                       T
 GLOBAL| Total number of message passing processes                            24
 GLOBAL| Number of threads for this process                                    1
 GLOBAL| This output is from process                                           0
 GLOBAL| Stack size for threads created by OpenMP (OMP_STACKSIZE)        default
 GLOBAL| CPU model name                         AMD EPYC 7502P 32-Core Processor
 GLOBAL| CPUID                                                              1002
 GLOBAL| Compiled for CPUID                                                    0

 *** HINT in environment.F:884 :: The compiler target flags (generic) used ***
 *** to build this binary cannot exploit all extensions of this CPU model  ***
 *** (x86_avx2). Consider compiler target flags as part of FCFLAGS and     ***
 *** CFLAGS (ARCH file).                                                   ***


 MEMORY| system memory details [Kb]
 MEMORY|                        rank 0           min           max       average
 MEMORY| MemTotal            263897160     263897160     263897160     263897160
 MEMORY| MemFree             227419224     227419224     227419224     227419224
 MEMORY| Buffers                  2560          2560          2560          2560
 MEMORY| Cached               16989740      16989740      16989740      16989740
 MEMORY| Slab                   987844        987844        987844        987844
 MEMORY| SReclaimable           502732        502732        502732        502732
 MEMORY| MemLikelyFree       244914256     244914256     244914256     244914256


 *** Fundamental physical constants (SI units) ***

 *** Literature: B. J. Mohr and B. N. Taylor,
 ***             CODATA recommended values of the fundamental physical
 ***             constants: 2006, Web Version 5.1
 ***             http://physics.nist.gov/constants

 Speed of light in vacuum [m/s]                             2.99792458000000E+08
 Magnetic constant or permeability of vacuum [N/A**2]       1.25663706143592E-06
 Electric constant or permittivity of vacuum [F/m]          8.85418781762039E-12
 Planck constant (h) [J*s]                                  6.62606896000000E-34
 Planck constant (h-bar) [J*s]                              1.05457162825177E-34
 Elementary charge [C]                                      1.60217648700000E-19
 Electron mass [kg]                                         9.10938215000000E-31
 Electron g factor [ ]                                     -2.00231930436220E+00
 Proton mass [kg]                                           1.67262163700000E-27
 Fine-structure constant                                    7.29735253760000E-03
 Rydberg constant [1/m]                                     1.09737315685270E+07
 Avogadro constant [1/mol]                                  6.02214179000000E+23
 Boltzmann constant [J/K]                                   1.38065040000000E-23
 Atomic mass unit [kg]                                      1.66053878200000E-27
 Bohr radius [m]                                            5.29177208590000E-11

 *** Conversion factors ***

 [u] -> [a.u.]                                              1.82288848426455E+03
 [Angstrom] -> [Bohr] = [a.u.]                              1.88972613288564E+00
 [a.u.] = [Bohr] -> [Angstrom]                              5.29177208590000E-01
 [a.u.] -> [s]                                              2.41888432650478E-17
 [a.u.] -> [fs]                                             2.41888432650478E-02
 [a.u.] -> [J]                                              4.35974393937059E-18
 [a.u.] -> [N]                                              8.23872205491840E-08
 [a.u.] -> [K]                                              3.15774647902944E+05
 [a.u.] -> [kJ/mol]                                         2.62549961709828E+03
 [a.u.] -> [kcal/mol]                                       6.27509468713739E+02
 [a.u.] -> [Pa]                                             2.94210107994716E+13
 [a.u.] -> [bar]                                            2.94210107994716E+08
 [a.u.] -> [atm]                                            2.90362800883016E+08
 [a.u.] -> [eV]                                             2.72113838565563E+01
 [a.u.] -> [Hz]                                             6.57968392072181E+15
 [a.u.] -> [1/cm] (wave numbers)                            2.19474631370540E+05
 [a.u./Bohr**2] -> [1/cm]                                   5.14048714338585E+03
 

 CELL_TOP| Volume [angstrom^3]:                                      7127.721916
 CELL_TOP| Vector a [angstrom    16.685     0.000     0.000   |a| =    16.685150
 CELL_TOP| Vector b [angstrom     0.000    16.685     0.000   |b| =    16.685150
 CELL_TOP| Vector c [angstrom     0.000     0.000    25.603   |c| =    25.602980
 CELL_TOP| Angle (b,c), alpha [degree]:                                90.000000
 CELL_TOP| Angle (a,c), beta  [degree]:                                90.000000
 CELL_TOP| Angle (a,b), gamma [degree]:                                90.000000
 CELL_TOP| Numerically orthorhombic:                                         YES
 CELL_TOP| Periodicity                                                       XYZ

 GENERATE|  Preliminary Number of Bonds generated:                             0
 GENERATE|  Achieved consistency in connectivity generation.

 CELL| Volume [angstrom^3]:                                          7127.721916
 CELL| Vector a [angstrom]:      16.685     0.000     0.000   |a| =    16.685150
 CELL| Vector b [angstrom]:       0.000    16.685     0.000   |b| =    16.685150
 CELL| Vector c [angstrom]:       0.000     0.000    25.603   |c| =    25.602980
 CELL| Angle (b,c), alpha [degree]:                                    90.000000
 CELL| Angle (a,c), beta  [degree]:                                    90.000000
 CELL| Angle (a,b), gamma [degree]:                                    90.000000
 CELL| Numerically orthorhombic:                                             YES
 CELL| Periodicity                                                           XYZ

 CELL_REF| Volume [angstrom^3]:                                      7127.721916
 CELL_REF| Vector a [angstrom    16.685     0.000     0.000   |a| =    16.685150
 CELL_REF| Vector b [angstrom     0.000    16.685     0.000   |b| =    16.685150
 CELL_REF| Vector c [angstrom     0.000     0.000    25.603   |c| =    25.602980
 CELL_REF| Angle (b,c), alpha [degree]:                                90.000000
 CELL_REF| Angle (a,c), beta  [degree]:                                90.000000
 CELL_REF| Angle (a,b), gamma [degree]:                                90.000000
 CELL_REF| Numerically orthorhombic:                                         YES
 CELL_REF| Periodicity                                                       XYZ

 *******************************************************************************
 *******************************************************************************
 **                                                                           **
 **     #####                         ##              ##                      **
 **    ##   ##            ##          ##              ##                      **
 **   ##     ##                       ##            ######                    **
 **   ##     ##  ##   ##  ##   #####  ##  ##   ####   ##    #####    #####    **
 **   ##     ##  ##   ##  ##  ##      ## ##   ##      ##   ##   ##  ##   ##   **
 **   ##  ## ##  ##   ##  ##  ##      ####     ###    ##   ######   ######    **
 **    ##  ###   ##   ##  ##  ##      ## ##      ##   ##   ##       ##        **
 **     #######   #####   ##   #####  ##  ##  ####    ##    #####   ##        **
 **           ##                                                    ##        **
 **                                                                           **
 **                                                ... make the atoms dance   **
 **                                                                           **
 **            Copyright (C) by CP2K developers group (2000-2022)             **
 **                      J. Chem. Phys. 152, 194103 (2020)                    **
 **                                                                           **
 *******************************************************************************

 DFT| Spin restricted Kohn-Sham (RKS) calculation                            RKS
 DFT| Multiplicity                                                             1
 DFT| Number of spin states                                                    1
 DFT| Charge                                                                   0
 DFT| Self-interaction correction (SIC)                                       NO
 DFT| Cutoffs: density                                              1.000000E-10
 DFT|          gradient                                             1.000000E-10
 DFT|          tau                                                  1.000000E-10
 DFT|          cutoff_smoothing_range                               0.000000E+00
 DFT| XC density smoothing                                                  NONE
 DFT| XC derivatives                                                          PW

 FUNCTIONAL| PADE:
 FUNCTIONAL| S. Goedecker, M. Teter and J. Hutter, Phys. Rev. B 54, 1703 (1996) 


 QS| Method:                                                                 GPW
 QS| Density plane wave grid type                        NON-SPHERICAL FULLSPACE
 QS| Number of grid levels:                                                    4
 QS| Density cutoff [a.u.]:                                                200.0
 QS| Multi grid cutoff [a.u.]: 1) grid level                               200.0
 QS|                           2) grid level                                66.7
 QS|                           3) grid level                                22.2
 QS|                           4) grid level                                 7.4
 QS| Grid level progression factor:                                          3.0
 QS| Relative density cutoff [a.u.]:                                        20.0
 QS| Interaction thresholds: eps_pgf_orb:                                1.0E-05
 QS|                         eps_filter_matrix:                          0.0E+00
 QS|                         eps_core_charge:                            1.0E-12
 QS|                         eps_rho_gspace:                             1.0E-10
 QS|                         eps_rho_rspace:                             1.0E-10
 QS|                         eps_gvg_rspace:                             1.0E-05
 QS|                         eps_ppl:                                    1.0E-02
 QS|                         eps_ppnl:                                   1.0E-07


 ATOMIC KIND INFORMATION

  1. Atomic kind: Au                                    Number of atoms:     288

     Orbital Basis Set                                         SZV-MOLOPT-SR-GTH

       Number of orbital shell sets:                                           1
       Number of orbital shells:                                               3
       Number of primitive Cartesian functions:                                5
       Number of Cartesian basis functions:                                   10
       Number of spherical basis functions:                                    9
       Norm type:                                                              2

       Normalised Cartesian orbitals:

                        Set   Shell   Orbital            Exponent    Coefficient

                          1       1    2s                2.950008       0.074626
                                                         1.563057      -0.007898
                                                         0.666664      -0.297688
                                                         0.251083       0.136809
                                                         0.081714       0.088198

                          1       2    3px               2.950008       0.148824
                                                         1.563057       0.025430
                                                         0.666664      -0.123003
                                                         0.251083       0.033648
                                                         0.081714       0.059008
                          1       2    3py               2.950008       0.148824
                                                         1.563057       0.025430
                                                         0.666664      -0.123003
                                                         0.251083       0.033648
                                                         0.081714       0.059008
                          1       2    3pz               2.950008       0.148824
                                                         1.563057       0.025430
                                                         0.666664      -0.123003
                                                         0.251083       0.033648
                                                         0.081714       0.059008

                          1       3    4dx2              2.950008      -0.139595
                                                         1.563057       1.319655
                                                         0.666664       0.377081
                                                         0.251083       0.046872
                                                         0.081714       0.001393
                          1       3    4dxy              2.950008      -0.241786
                                                         1.563057       2.285709
                                                         0.666664       0.653124
                                                         0.251083       0.081185
                                                         0.081714       0.002412
                          1       3    4dxz              2.950008      -0.241786
                                                         1.563057       2.285709
                                                         0.666664       0.653124
                                                         0.251083       0.081185
                                                         0.081714       0.002412
                          1       3    4dy2              2.950008      -0.139595
                                                         1.563057       1.319655
                                                         0.666664       0.377081
                                                         0.251083       0.046872
                                                         0.081714       0.001393
                          1       3    4dyz              2.950008      -0.241786
                                                         1.563057       2.285709
                                                         0.666664       0.653124
                                                         0.251083       0.081185
                                                         0.081714       0.002412
                          1       3    4dz2              2.950008      -0.139595
                                                         1.563057       1.319655
                                                         0.666664       0.377081
                                                         0.251083       0.046872
                                                         0.081714       0.001393

       Atomic covalent radius [Angstrom]:                                  1.340

       Atomic van der Waals radius [Angstrom]:                             1.660

     GTH Potential information for                                  GTH-PADE-q11

       Description:                       Goedecker-Teter-Hutter pseudopotential
                                           Goedecker et al., PRB 54, 1703 (1996)
                                          Hartwigsen et al., PRB 58, 3641 (1998)
                                                      Krack, TCA 114, 145 (2005)

       Gaussian exponent of the core charge distribution:               1.436369
       Electronic configuration (s p d ...):                           1   0  10

       Parameters of the local part of the GTH pseudopotential:

                          rloc        C1          C2          C3          C4
                        0.590000   11.604428

       Parameters of the non-local part of the GTH pseudopotential:

                   l      r(l)      h(i,j,l)

                   0    0.521180    2.538614   -1.046137
                                   -1.046137    2.701113
                   1    0.630613    0.394853   -0.869592
                                   -0.869592    2.057831
                   2    0.440706   -4.719070    0.727771
                                    0.727771   -1.650429

  2. Atomic kind: S                                     Number of atoms:       2

     Orbital Basis Set                                        DZVP-MOLOPT-SR-GTH

       Number of orbital shell sets:                                           1
       Number of orbital shells:                                               5
       Number of primitive Cartesian functions:                                4
       Number of Cartesian basis functions:                                   14
       Number of spherical basis functions:                                   13
       Norm type:                                                              2

       Normalised Cartesian orbitals:

                        Set   Shell   Orbital            Exponent    Coefficient

                          1       1    2s                2.215855       0.308496
                                                         1.131471       0.138505
                                                         0.410168      -0.373736
                                                         0.140587      -0.040370

                          1       2    3s                2.215855      -0.329528
                                                         1.131471      -0.517509
                                                         0.410168       0.787368
                                                         0.140587      -0.322786

                          1       3    3px               2.215855       0.420434
                                                         1.131471      -0.319283
                                                         0.410168      -0.335323
                                                         0.140587      -0.030976
                          1       3    3py               2.215855       0.420434
                                                         1.131471      -0.319283
                                                         0.410168      -0.335323
                                                         0.140587      -0.030976
                          1       3    3pz               2.215855       0.420434
                                                         1.131471      -0.319283
                                                         0.410168      -0.335323
                                                         0.140587      -0.030976

                          1       4    4px               2.215855       0.241296
                                                         1.131471      -0.170582
                                                         0.410168      -0.186977
                                                         0.140587       0.153509
                          1       4    4py               2.215855       0.241296
                                                         1.131471      -0.170582
                                                         0.410168      -0.186977
                                                         0.140587       0.153509
                          1       4    4pz               2.215855       0.241296
                                                         1.131471      -0.170582
                                                         0.410168      -0.186977
                                                         0.140587       0.153509

                          1       5    4dx2              2.215855       0.573559
                                                         1.131471       0.544926
                                                         0.410168       0.228284
                                                         0.140587       0.008811
                          1       5    4dxy              2.215855       0.993434
                                                         1.131471       0.943840
                                                         0.410168       0.395400
                                                         0.140587       0.015260
                          1       5    4dxz              2.215855       0.993434
                                                         1.131471       0.943840
                                                         0.410168       0.395400
                                                         0.140587       0.015260
                          1       5    4dy2              2.215855       0.573559
                                                         1.131471       0.544926
                                                         0.410168       0.228284
                                                         0.140587       0.008811
                          1       5    4dyz              2.215855       0.993434
                                                         1.131471       0.943840
                                                         0.410168       0.395400
                                                         0.140587       0.015260
                          1       5    4dz2              2.215855       0.573559
                                                         1.131471       0.544926
                                                         0.410168       0.228284
                                                         0.140587       0.008811

       Atomic covalent radius [Angstrom]:                                  1.020

       Atomic van der Waals radius [Angstrom]:                             1.800

     GTH Potential information for                                   GTH-PADE-q6

       Description:                       Goedecker-Teter-Hutter pseudopotential
                                           Goedecker et al., PRB 54, 1703 (1996)
                                          Hartwigsen et al., PRB 58, 3641 (1998)
                                                      Krack, TCA 114, 145 (2005)

       Gaussian exponent of the core charge distribution:               2.834467
       Electronic configuration (s p d ...):                               2   4

       Parameters of the local part of the GTH pseudopotential:

                          rloc        C1          C2          C3          C4
                        0.420000   -6.554492

       Parameters of the non-local part of the GTH pseudopotential:

                   l      r(l)      h(i,j,l)

                   0    0.361757    7.905303   -1.731881
                                   -1.731881    4.471698
                   1    0.405285    3.866579

  3. Atomic kind: C                                     Number of atoms:       6

     Orbital Basis Set                                        DZVP-MOLOPT-SR-GTH

       Number of orbital shell sets:                                           1
       Number of orbital shells:                                               5
       Number of primitive Cartesian functions:                                5
       Number of Cartesian basis functions:                                   14
       Number of spherical basis functions:                                   13
       Norm type:                                                              2

       Normalised Cartesian orbitals:

                        Set   Shell   Orbital            Exponent    Coefficient

                          1       1    2s                5.605331       0.322515
                                                         2.113016       0.213043
                                                         0.769911      -0.209686
                                                         0.348157      -0.219794
                                                         0.128212      -0.022789

                          1       2    3s                5.605331       0.552234
                                                         2.113016       0.082072
                                                         0.769911       0.007843
                                                         0.348157       0.136893
                                                         0.128212       0.074283

                          1       3    3px               5.605331      -0.703879
                                                         2.113016      -0.642521
                                                         0.769911      -0.374851
                                                         0.348157      -0.139743
                                                         0.128212      -0.027849
                          1       3    3py               5.605331      -0.703879
                                                         2.113016      -0.642521
                                                         0.769911      -0.374851
                                                         0.348157      -0.139743
                                                         0.128212      -0.027849
                          1       3    3pz               5.605331      -0.703879
                                                         2.113016      -0.642521
                                                         0.769911      -0.374851
                                                         0.348157      -0.139743
                                                         0.128212      -0.027849

                          1       4    4px               5.605331      -0.480376
                                                         2.113016      -0.552894
                                                         0.769911      -0.316145
                                                         0.348157       0.210505
                                                         0.128212       0.076095
                          1       4    4py               5.605331      -0.480376
                                                         2.113016      -0.552894
                                                         0.769911      -0.316145
                                                         0.348157       0.210505
                                                         0.128212       0.076095
                          1       4    4pz               5.605331      -0.480376
                                                         2.113016      -0.552894
                                                         0.769911      -0.316145
                                                         0.348157       0.210505
                                                         0.128212       0.076095

                          1       5    4dx2              5.605331       0.640026
                                                         2.113016       0.274300
                                                         0.769911       0.446711
                                                         0.348157       0.028674
                                                         0.128212       0.029790
                          1       5    4dxy              5.605331       1.108557
                                                         2.113016       0.475102
                                                         0.769911       0.773726
                                                         0.348157       0.049666
                                                         0.128212       0.051599
                          1       5    4dxz              5.605331       1.108557
                                                         2.113016       0.475102
                                                         0.769911       0.773726
                                                         0.348157       0.049666
                                                         0.128212       0.051599
                          1       5    4dy2              5.605331       0.640026
                                                         2.113016       0.274300
                                                         0.769911       0.446711
                                                         0.348157       0.028674
                                                         0.128212       0.029790
                          1       5    4dyz              5.605331       1.108557
                                                         2.113016       0.475102
                                                         0.769911       0.773726
                                                         0.348157       0.049666
                                                         0.128212       0.051599
                          1       5    4dz2              5.605331       0.640026
                                                         2.113016       0.274300
                                                         0.769911       0.446711
                                                         0.348157       0.028674
                                                         0.128212       0.029790

       Atomic covalent radius [Angstrom]:                                  0.770

       Atomic van der Waals radius [Angstrom]:                             1.700

     GTH Potential information for                                   GTH-PADE-q4

       Description:                       Goedecker-Teter-Hutter pseudopotential
                                           Goedecker et al., PRB 54, 1703 (1996)
                                          Hartwigsen et al., PRB 58, 3641 (1998)
                                                      Krack, TCA 114, 145 (2005)

       Gaussian exponent of the core charge distribution:               4.109048
       Electronic configuration (s p d ...):                               2   2

       Parameters of the local part of the GTH pseudopotential:

                          rloc        C1          C2          C3          C4
                        0.348830   -8.513771    1.228432

       Parameters of the non-local part of the GTH pseudopotential:

                   l      r(l)      h(i,j,l)

                   0    0.304553    9.522842
                   1    0.232677

  4. Atomic kind: H                                     Number of atoms:       4

     Orbital Basis Set                                        DZVP-MOLOPT-SR-GTH

       Number of orbital shell sets:                                           1
       Number of orbital shells:                                               3
       Number of primitive Cartesian functions:                                5
       Number of Cartesian basis functions:                                    5
       Number of spherical basis functions:                                    5
       Norm type:                                                              2

       Normalised Cartesian orbitals:

                        Set   Shell   Orbital            Exponent    Coefficient

                          1       1    2s               10.068468      -0.133023
                                                         2.680223      -0.177618
                                                         0.791502      -0.258419
                                                         0.239116      -0.107525
                                                         0.082193      -0.014019

                          1       2    3s               10.068468       0.344673
                                                         2.680223       1.819821
                                                         0.791502      -0.999069
                                                         0.239116       0.017430
                                                         0.082193       0.082660

                          1       3    3px              10.068468       0.155326
                                                         2.680223       0.367157
                                                         0.791502       0.311480
                                                         0.239116       0.080105
                                                         0.082193       0.033440
                          1       3    3py              10.068468       0.155326
                                                         2.680223       0.367157
                                                         0.791502       0.311480
                                                         0.239116       0.080105
                                                         0.082193       0.033440
                          1       3    3pz              10.068468       0.155326
                                                         2.680223       0.367157
                                                         0.791502       0.311480
                                                         0.239116       0.080105
                                                         0.082193       0.033440

       Atomic covalent radius [Angstrom]:                                  0.320

       Atomic van der Waals radius [Angstrom]:                             1.090

     GTH Potential information for                                   GTH-PADE-q1

       Description:                       Goedecker-Teter-Hutter pseudopotential
                                           Goedecker et al., PRB 54, 1703 (1996)
                                          Hartwigsen et al., PRB 58, 3641 (1998)
                                                      Krack, TCA 114, 145 (2005)

       Gaussian exponent of the core charge distribution:              12.500000
       Electronic configuration (s p d ...):                                   1

       Parameters of the local part of the GTH pseudopotential:

                          rloc        C1          C2          C3          C4
                        0.200000   -4.180237    0.725075


 MOLECULE KIND INFORMATION


 All atoms are their own molecule, skipping detailed information


 TOTAL NUMBERS AND MAXIMUM NUMBERS

  Total number of            - Atomic kinds:                                   4
                             - Atoms:                                        300
                             - Shell sets:                                   300
                             - Shells:                                       916
                             - Primitive Cartesian functions:               1498
                             - Cartesian basis functions:                   3012
                             - Spherical basis functions:                   2716

  Maximum angular momentum of- Orbital basis functions:                        2
                             - Local part of the GTH pseudopotential:          2
                             - Non-local part of the GTH pseudopotential:      4


 MODULE QUICKSTEP: ATOMIC COORDINATES IN ANGSTROM

   Atom Kind Element         X             Y             Z       Z(eff)     Mass
      1    1 Au   79      1.042821      1.042821      1.042824  11.0000 196.9666
      2    1 Au   79      1.042821      1.042821      9.385400  11.0000 196.9666
      3    1 Au   79      1.042821      3.128465      3.128468  11.0000 196.9666
      4    1 Au   79      3.128465      1.042821      3.128468  11.0000 196.9666
      5    1 Au   79      3.128465      3.128465      1.042824  11.0000 196.9666
      6    1 Au   79      3.128465      3.128465      9.385400  11.0000 196.9666
      7    1 Au   79      1.042821      1.042821      5.214112  11.0000 196.9666
      8    1 Au   79      5.214109      1.042821      1.042824  11.0000 196.9666
      9    1 Au   79      5.214109      1.042821      9.385400  11.0000 196.9666
     10    1 Au   79     13.556685      1.042821      1.042824  11.0000 196.9666
     11    1 Au   79     13.556685      1.042821      9.385400  11.0000 196.9666
     12    1 Au   79      1.042821      5.214109      1.042824  11.0000 196.9666
     13    1 Au   79      1.042821      5.214109      9.385400  11.0000 196.9666
     14    1 Au   79      1.042821     13.556685      1.042824  11.0000 196.9666
     15    1 Au   79      1.042821     13.556685      9.385400  11.0000 196.9666
     16    1 Au   79      1.042821      3.128465      7.299756  11.0000 196.9666
     17    1 Au   79      5.214109      3.128465      3.128468  11.0000 196.9666
     18    1 Au   79     13.556685      3.128465      3.128468  11.0000 196.9666
     19    1 Au   79      1.042821      7.299753      3.128468  11.0000 196.9666
     20    1 Au   79      1.042821     15.642329      3.128468  11.0000 196.9666
     21    1 Au   79      3.128465      1.042821      7.299756  11.0000 196.9666
     22    1 Au   79      7.299753      1.042821      3.128468  11.0000 196.9666
     23    1 Au   79     15.642329      1.042821      3.128468  11.0000 196.9666
     24    1 Au   79      3.128465      5.214109      3.128468  11.0000 196.9666
     25    1 Au   79      3.128465     13.556685      3.128468  11.0000 196.9666
     26    1 Au   79      3.128465      3.128465      5.214112  11.0000 196.9666
     27    1 Au   79      7.299753      3.128465      1.042824  11.0000 196.9666
     28    1 Au   79      7.299753      3.128465      9.385400  11.0000 196.9666
     29    1 Au   79     15.642329      3.128465      1.042824  11.0000 196.9666
     30    1 Au   79     15.642329      3.128465      9.385400  11.0000 196.9666
     31    1 Au   79      3.128465      7.299753      1.042824  11.0000 196.9666
     32    1 Au   79      3.128465      7.299753      9.385400  11.0000 196.9666
     33    1 Au   79      3.128465     15.642329      1.042824  11.0000 196.9666
     34    1 Au   79      3.128465     15.642329      9.385400  11.0000 196.9666
     35    1 Au   79      1.042821      5.214109      5.214112  11.0000 196.9666
     36    1 Au   79      1.042821     13.556685      5.214112  11.0000 196.9666
     37    1 Au   79      5.214109      1.042821      5.214112  11.0000 196.9666
     38    1 Au   79     13.556685      1.042821      5.214112  11.0000 196.9666
     39    1 Au   79      5.214109      5.214109      1.042824  11.0000 196.9666
     40    1 Au   79      5.214109      5.214109      9.385400  11.0000 196.9666
     41    1 Au   79     13.556685     13.556685      1.042824  11.0000 196.9666
     42    1 Au   79     13.556685     13.556685      9.385400  11.0000 196.9666
     43    1 Au   79     13.556685      5.214109      1.042824  11.0000 196.9666
     44    1 Au   79     13.556685      5.214109      9.385400  11.0000 196.9666
     45    1 Au   79      5.214109     13.556685      1.042824  11.0000 196.9666
     46    1 Au   79      5.214109     13.556685      9.385400  11.0000 196.9666
     47    1 Au   79      1.042821      7.299753      7.299756  11.0000 196.9666
     48    1 Au   79      1.042821     15.642329      7.299756  11.0000 196.9666
     49    1 Au   79      5.214109      3.128465      7.299756  11.0000 196.9666
     50    1 Au   79     13.556685      3.128465      7.299756  11.0000 196.9666
     51    1 Au   79      5.214109      7.299753      3.128468  11.0000 196.9666
     52    1 Au   79     13.556685     15.642329      3.128468  11.0000 196.9666
     53    1 Au   79     13.556685      7.299753      3.128468  11.0000 196.9666
     54    1 Au   79      5.214109     15.642329      3.128468  11.0000 196.9666
     55    1 Au   79      3.128465      5.214109      7.299756  11.0000 196.9666
     56    1 Au   79      3.128465     13.556685      7.299756  11.0000 196.9666
     57    1 Au   79      7.299753      1.042821      7.299756  11.0000 196.9666
     58    1 Au   79     15.642329      1.042821      7.299756  11.0000 196.9666
     59    1 Au   79      7.299753      5.214109      3.128468  11.0000 196.9666
     60    1 Au   79     15.642329     13.556685      3.128468  11.0000 196.9666
     61    1 Au   79     15.642329      5.214109      3.128468  11.0000 196.9666
     62    1 Au   79      7.299753     13.556685      3.128468  11.0000 196.9666
     63    1 Au   79      3.128465      7.299753      5.214112  11.0000 196.9666
     64    1 Au   79      3.128465     15.642329      5.214112  11.0000 196.9666
     65    1 Au   79      7.299753      3.128465      5.214112  11.0000 196.9666
     66    1 Au   79     15.642329      3.128465      5.214112  11.0000 196.9666
     67    1 Au   79      7.299753      7.299753      1.042824  11.0000 196.9666
     68    1 Au   79      7.299753      7.299753      9.385400  11.0000 196.9666
     69    1 Au   79     15.642329     15.642329      1.042824  11.0000 196.9666
     70    1 Au   79     15.642329     15.642329      9.385400  11.0000 196.9666
     71    1 Au   79     15.642329      7.299753      1.042824  11.0000 196.9666
     72    1 Au   79     15.642329      7.299753      9.385400  11.0000 196.9666
     73    1 Au   79      7.299753     15.642329      1.042824  11.0000 196.9666
     74    1 Au   79      7.299753     15.642329      9.385400  11.0000 196.9666
     75    1 Au   79      1.042821      9.385397      1.042824  11.0000 196.9666
     76    1 Au   79      1.042821      9.385397      9.385400  11.0000 196.9666
     77    1 Au   79      9.385397      1.042821      1.042824  11.0000 196.9666
     78    1 Au   79      9.385397      1.042821      9.385400  11.0000 196.9666
     79    1 Au   79      1.042821     11.471041      3.128468  11.0000 196.9666
     80    1 Au   79      9.385397      3.128465      3.128468  11.0000 196.9666
     81    1 Au   79      3.128465      9.385397      3.128468  11.0000 196.9666
     82    1 Au   79     11.471041      1.042821      3.128468  11.0000 196.9666
     83    1 Au   79      3.128465     11.471041      1.042824  11.0000 196.9666
     84    1 Au   79      3.128465     11.471041      9.385400  11.0000 196.9666
     85    1 Au   79     11.471041      3.128465      1.042824  11.0000 196.9666
     86    1 Au   79     11.471041      3.128465      9.385400  11.0000 196.9666
     87    1 Au   79      1.042821      9.385397      5.214112  11.0000 196.9666
     88    1 Au   79      9.385397      5.214109      1.042824  11.0000 196.9666
     89    1 Au   79      9.385397      5.214109      9.385400  11.0000 196.9666
     90    1 Au   79      9.385397     13.556685      1.042824  11.0000 196.9666
     91    1 Au   79      9.385397     13.556685      9.385400  11.0000 196.9666
     92    1 Au   79      9.385397      1.042821      5.214112  11.0000 196.9666
     93    1 Au   79      5.214109      9.385397      1.042824  11.0000 196.9666
     94    1 Au   79      5.214109      9.385397      9.385400  11.0000 196.9666
     95    1 Au   79     13.556685      9.385397      1.042824  11.0000 196.9666
     96    1 Au   79     13.556685      9.385397      9.385400  11.0000 196.9666
     97    1 Au   79      1.042821     11.471041      7.299756  11.0000 196.9666
     98    1 Au   79      9.385397      7.299753      3.128468  11.0000 196.9666
     99    1 Au   79      9.385397     15.642329      3.128468  11.0000 196.9666
    100    1 Au   79      9.385397      3.128465      7.299756  11.0000 196.9666
    101    1 Au   79      5.214109     11.471041      3.128468  11.0000 196.9666
    102    1 Au   79     13.556685     11.471041      3.128468  11.0000 196.9666
    103    1 Au   79      3.128465      9.385397      7.299756  11.0000 196.9666
    104    1 Au   79     11.471041      5.214109      3.128468  11.0000 196.9666
    105    1 Au   79     11.471041     13.556685      3.128468  11.0000 196.9666
    106    1 Au   79     11.471041      1.042821      7.299756  11.0000 196.9666
    107    1 Au   79      7.299753      9.385397      3.128468  11.0000 196.9666
    108    1 Au   79     15.642329      9.385397      3.128468  11.0000 196.9666
    109    1 Au   79      3.128465     11.471041      5.214112  11.0000 196.9666
    110    1 Au   79     11.471041      7.299753      1.042824  11.0000 196.9666
    111    1 Au   79     11.471041      7.299753      9.385400  11.0000 196.9666
    112    1 Au   79     11.471041     15.642329      1.042824  11.0000 196.9666
    113    1 Au   79     11.471041     15.642329      9.385400  11.0000 196.9666
    114    1 Au   79     11.471041      3.128465      5.214112  11.0000 196.9666
    115    1 Au   79      7.299753     11.471041      1.042824  11.0000 196.9666
    116    1 Au   79      7.299753     11.471041      9.385400  11.0000 196.9666
    117    1 Au   79     15.642329     11.471041      1.042824  11.0000 196.9666
    118    1 Au   79     15.642329     11.471041      9.385400  11.0000 196.9666
    119    1 Au   79      5.214109      5.214109      5.214112  11.0000 196.9666
    120    1 Au   79     13.556685     13.556685      5.214112  11.0000 196.9666
    121    1 Au   79     13.556685      5.214109      5.214112  11.0000 196.9666
    122    1 Au   79      5.214109     13.556685      5.214112  11.0000 196.9666
    123    1 Au   79      5.214109      7.299753      7.299756  11.0000 196.9666
    124    1 Au   79     13.556685     15.642329      7.299756  11.0000 196.9666
    125    1 Au   79     13.556685      7.299753      7.299756  11.0000 196.9666
    126    1 Au   79      5.214109     15.642329      7.299756  11.0000 196.9666
    127    1 Au   79      7.299753      5.214109      7.299756  11.0000 196.9666
    128    1 Au   79     15.642329     13.556685      7.299756  11.0000 196.9666
    129    1 Au   79     15.642329      5.214109      7.299756  11.0000 196.9666
    130    1 Au   79      7.299753     13.556685      7.299756  11.0000 196.9666
    131    1 Au   79      7.299753      7.299753      5.214112  11.0000 196.9666
    132    1 Au   79     15.642329     15.642329      5.214112  11.0000 196.9666
    133    1 Au   79     15.642329      7.299753      5.214112  11.0000 196.9666
    134    1 Au   79      7.299753     15.642329      5.214112  11.0000 196.9666
    135    1 Au   79      5.214109      9.385397      5.214112  11.0000 196.9666
    136    1 Au   79     13.556685      9.385397      5.214112  11.0000 196.9666
    137    1 Au   79      9.385397      5.214109      5.214112  11.0000 196.9666
    138    1 Au   79      9.385397     13.556685      5.214112  11.0000 196.9666
    139    1 Au   79      5.214109     11.471041      7.299756  11.0000 196.9666
    140    1 Au   79     13.556685     11.471041      7.299756  11.0000 196.9666
    141    1 Au   79      9.385397      7.299753      7.299756  11.0000 196.9666
    142    1 Au   79      9.385397     15.642329      7.299756  11.0000 196.9666
    143    1 Au   79      7.299753      9.385397      7.299756  11.0000 196.9666
    144    1 Au   79     15.642329      9.385397      7.299756  11.0000 196.9666
    145    1 Au   79     11.471041      5.214109      7.299756  11.0000 196.9666
    146    1 Au   79     11.471041     13.556685      7.299756  11.0000 196.9666
    147    1 Au   79      7.299753     11.471041      5.214112  11.0000 196.9666
    148    1 Au   79     15.642329     11.471041      5.214112  11.0000 196.9666
    149    1 Au   79     11.471041      7.299753      5.214112  11.0000 196.9666
    150    1 Au   79     11.471041     15.642329      5.214112  11.0000 196.9666
    151    1 Au   79      9.385397      9.385397      1.042824  11.0000 196.9666
    152    1 Au   79      9.385397      9.385397      9.385400  11.0000 196.9666
    153    1 Au   79      9.385397     11.471041      3.128468  11.0000 196.9666
    154    1 Au   79     11.471041      9.385397      3.128468  11.0000 196.9666
    155    1 Au   79     11.471041     11.471041      1.042824  11.0000 196.9666
    156    1 Au   79     11.471041     11.471041      9.385400  11.0000 196.9666
    157    1 Au   79      9.385397      9.385397      5.214112  11.0000 196.9666
    158    1 Au   79      9.385397     11.471041      7.299756  11.0000 196.9666
    159    1 Au   79     11.471041      9.385397      7.299756  11.0000 196.9666
    160    1 Au   79     11.471041     11.471041      5.214112  11.0000 196.9666
    161    2 S    16      9.385401     11.471041     17.017724   6.0000  32.0650
    162    3 C     6      9.371421     11.464971     15.256224   4.0000  12.0107
    163    3 C     6      8.172851     11.459011     14.555754   4.0000  12.0107
    164    3 C     6     10.580701     11.459011     14.555754   4.0000  12.0107
    165    2 S    16      9.385401     11.471041     10.670944   6.0000  32.0650
    166    3 C     6      9.388801     11.474891     12.432444   4.0000  12.0107
    167    3 C     6     10.587371     11.480861     13.132904   4.0000  12.0107
    168    3 C     6      8.179521     11.480861     13.132904   4.0000  12.0107
    169    4 H     1      7.276671     11.438711     15.067114   1.0000   1.0079
    170    4 H     1     11.473461     11.438651     15.073034   1.0000   1.0079
    171    4 H     1     11.483551     11.501151     12.621554   1.0000   1.0079
    172    4 H     1      7.286761     11.501221     12.615634   1.0000   1.0079
    173    1 Au   79      1.042821      1.042821     18.303224  11.0000 196.9666
    174    1 Au   79      1.042821      3.128465     20.388868  11.0000 196.9666
    175    1 Au   79      3.128465      1.042821     20.388868  11.0000 196.9666
    176    1 Au   79      3.128465      3.128465     18.303224  11.0000 196.9666
    177    1 Au   79      1.042821      1.042821     22.474512  11.0000 196.9666
    178    1 Au   79      5.214109      1.042821     18.303224  11.0000 196.9666
    179    1 Au   79     13.556685      1.042821     18.303224  11.0000 196.9666
    180    1 Au   79      1.042821      5.214109     18.303224  11.0000 196.9666
    181    1 Au   79      1.042821     13.556685     18.303224  11.0000 196.9666
    182    1 Au   79      1.042821      3.128465     24.560156  11.0000 196.9666
    183    1 Au   79      5.214109      3.128465     20.388868  11.0000 196.9666
    184    1 Au   79     13.556685      3.128465     20.388868  11.0000 196.9666
    185    1 Au   79      1.042821      7.299753     20.388868  11.0000 196.9666
    186    1 Au   79      1.042821     15.642329     20.388868  11.0000 196.9666
    187    1 Au   79      3.128465      1.042821     24.560156  11.0000 196.9666
    188    1 Au   79      7.299753      1.042821     20.388868  11.0000 196.9666
    189    1 Au   79     15.642329      1.042821     20.388868  11.0000 196.9666
    190    1 Au   79      3.128465      5.214109     20.388868  11.0000 196.9666
    191    1 Au   79      3.128465     13.556685     20.388868  11.0000 196.9666
    192    1 Au   79      3.128465      3.128465     22.474512  11.0000 196.9666
    193    1 Au   79      7.299753      3.128465     18.303224  11.0000 196.9666
    194    1 Au   79     15.642329      3.128465     18.303224  11.0000 196.9666
    195    1 Au   79      3.128465      7.299753     18.303224  11.0000 196.9666
    196    1 Au   79      3.128465     15.642329     18.303224  11.0000 196.9666
    197    1 Au   79      1.042821      5.214109     22.474512  11.0000 196.9666
    198    1 Au   79      1.042821     13.556685     22.474512  11.0000 196.9666
    199    1 Au   79      5.214109      1.042821     22.474512  11.0000 196.9666
    200    1 Au   79     13.556685      1.042821     22.474512  11.0000 196.9666
    201    1 Au   79      5.214109      5.214109     18.303224  11.0000 196.9666
    202    1 Au   79     13.556685     13.556685     18.303224  11.0000 196.9666
    203    1 Au   79     13.556685      5.214109     18.303224  11.0000 196.9666
    204    1 Au   79      5.214109     13.556685     18.303224  11.0000 196.9666
    205    1 Au   79      1.042821      7.299753     24.560156  11.0000 196.9666
    206    1 Au   79      1.042821     15.642329     24.560156  11.0000 196.9666
    207    1 Au   79      5.214109      3.128465     24.560156  11.0000 196.9666
    208    1 Au   79     13.556685      3.128465     24.560156  11.0000 196.9666
    209    1 Au   79      5.214109      7.299753     20.388868  11.0000 196.9666
    210    1 Au   79     13.556685     15.642329     20.388868  11.0000 196.9666
    211    1 Au   79     13.556685      7.299753     20.388868  11.0000 196.9666
    212    1 Au   79      5.214109     15.642329     20.388868  11.0000 196.9666
    213    1 Au   79      3.128465      5.214109     24.560156  11.0000 196.9666
    214    1 Au   79      3.128465     13.556685     24.560156  11.0000 196.9666
    215    1 Au   79      7.299753      1.042821     24.560156  11.0000 196.9666
    216    1 Au   79     15.642329      1.042821     24.560156  11.0000 196.9666
    217    1 Au   79      7.299753      5.214109     20.388868  11.0000 196.9666
    218    1 Au   79     15.642329     13.556685     20.388868  11.0000 196.9666
    219    1 Au   79     15.642329      5.214109     20.388868  11.0000 196.9666
    220    1 Au   79      7.299753     13.556685     20.388868  11.0000 196.9666
    221    1 Au   79      3.128465      7.299753     22.474512  11.0000 196.9666
    222    1 Au   79      3.128465     15.642329     22.474512  11.0000 196.9666
    223    1 Au   79      7.299753      3.128465     22.474512  11.0000 196.9666
    224    1 Au   79     15.642329      3.128465     22.474512  11.0000 196.9666
    225    1 Au   79      7.299753      7.299753     18.303224  11.0000 196.9666
    226    1 Au   79     15.642329     15.642329     18.303224  11.0000 196.9666
    227    1 Au   79     15.642329      7.299753     18.303224  11.0000 196.9666
    228    1 Au   79      7.299753     15.642329     18.303224  11.0000 196.9666
    229    1 Au   79      1.042821      9.385397     18.303224  11.0000 196.9666
    230    1 Au   79      9.385397      1.042821     18.303224  11.0000 196.9666
    231    1 Au   79      1.042821     11.471041     20.388868  11.0000 196.9666
    232    1 Au   79      9.385397      3.128465     20.388868  11.0000 196.9666
    233    1 Au   79      3.128465      9.385397     20.388868  11.0000 196.9666
    234    1 Au   79     11.471041      1.042821     20.388868  11.0000 196.9666
    235    1 Au   79      3.128465     11.471041     18.303224  11.0000 196.9666
    236    1 Au   79     11.471041      3.128465     18.303224  11.0000 196.9666
    237    1 Au   79      1.042821      9.385397     22.474512  11.0000 196.9666
    238    1 Au   79      9.385397      5.214109     18.303224  11.0000 196.9666
    239    1 Au   79      9.385397     13.556685     18.303224  11.0000 196.9666
    240    1 Au   79      9.385397      1.042821     22.474512  11.0000 196.9666
    241    1 Au   79      5.214109      9.385397     18.303224  11.0000 196.9666
    242    1 Au   79     13.556685      9.385397     18.303224  11.0000 196.9666
    243    1 Au   79      1.042821     11.471041     24.560156  11.0000 196.9666
    244    1 Au   79      9.385397      7.299753     20.388868  11.0000 196.9666
    245    1 Au   79      9.385397     15.642329     20.388868  11.0000 196.9666
    246    1 Au   79      9.385397      3.128465     24.560156  11.0000 196.9666
    247    1 Au   79      5.214109     11.471041     20.388868  11.0000 196.9666
    248    1 Au   79     13.556685     11.471041     20.388868  11.0000 196.9666
    249    1 Au   79      3.128465      9.385397     24.560156  11.0000 196.9666
    250    1 Au   79     11.471041      5.214109     20.388868  11.0000 196.9666
    251    1 Au   79     11.471041     13.556685     20.388868  11.0000 196.9666
    252    1 Au   79     11.471041      1.042821     24.560156  11.0000 196.9666
    253    1 Au   79      7.299753      9.385397     20.388868  11.0000 196.9666
    254    1 Au   79     15.642329      9.385397     20.388868  11.0000 196.9666
    255    1 Au   79      3.128465     11.471041     22.474512  11.0000 196.9666
    256    1 Au   79     11.471041      7.299753     18.303224  11.0000 196.9666
    257    1 Au   79     11.471041     15.642329     18.303224  11.0000 196.9666
    258    1 Au   79     11.471041      3.128465     22.474512  11.0000 196.9666
    259    1 Au   79      7.299753     11.471041     18.303224  11.0000 196.9666
    260    1 Au   79     15.642329     11.471041     18.303224  11.0000 196.9666
    261    1 Au   79      5.214109      5.214109     22.474512  11.0000 196.9666
    262    1 Au   79     13.556685     13.556685     22.474512  11.0000 196.9666
    263    1 Au   79     13.556685      5.214109     22.474512  11.0000 196.9666
    264    1 Au   79      5.214109     13.556685     22.474512  11.0000 196.9666
    265    1 Au   79      5.214109      7.299753     24.560156  11.0000 196.9666
    266    1 Au   79     13.556685     15.642329     24.560156  11.0000 196.9666
    267    1 Au   79     13.556685      7.299753     24.560156  11.0000 196.9666
    268    1 Au   79      5.214109     15.642329     24.560156  11.0000 196.9666
    269    1 Au   79      7.299753      5.214109     24.560156  11.0000 196.9666
    270    1 Au   79     15.642329     13.556685     24.560156  11.0000 196.9666
    271    1 Au   79     15.642329      5.214109     24.560156  11.0000 196.9666
    272    1 Au   79      7.299753     13.556685     24.560156  11.0000 196.9666
    273    1 Au   79      7.299753      7.299753     22.474512  11.0000 196.9666
    274    1 Au   79     15.642329     15.642329     22.474512  11.0000 196.9666
    275    1 Au   79     15.642329      7.299753     22.474512  11.0000 196.9666
    276    1 Au   79      7.299753     15.642329     22.474512  11.0000 196.9666
    277    1 Au   79      5.214109      9.385397     22.474512  11.0000 196.9666
    278    1 Au   79     13.556685      9.385397     22.474512  11.0000 196.9666
    279    1 Au   79      9.385397      5.214109     22.474512  11.0000 196.9666
    280    1 Au   79      9.385397     13.556685     22.474512  11.0000 196.9666
    281    1 Au   79      5.214109     11.471041     24.560156  11.0000 196.9666
    282    1 Au   79     13.556685     11.471041     24.560156  11.0000 196.9666
    283    1 Au   79      9.385397      7.299753     24.560156  11.0000 196.9666
    284    1 Au   79      9.385397     15.642329     24.560156  11.0000 196.9666
    285    1 Au   79      7.299753      9.385397     24.560156  11.0000 196.9666
    286    1 Au   79     15.642329      9.385397     24.560156  11.0000 196.9666
    287    1 Au   79     11.471041      5.214109     24.560156  11.0000 196.9666
    288    1 Au   79     11.471041     13.556685     24.560156  11.0000 196.9666
    289    1 Au   79      7.299753     11.471041     22.474512  11.0000 196.9666
    290    1 Au   79     15.642329     11.471041     22.474512  11.0000 196.9666
    291    1 Au   79     11.471041      7.299753     22.474512  11.0000 196.9666
    292    1 Au   79     11.471041     15.642329     22.474512  11.0000 196.9666
    293    1 Au   79      9.385397      9.385397     18.303224  11.0000 196.9666
    294    1 Au   79      9.385397     11.471041     20.388868  11.0000 196.9666
    295    1 Au   79     11.471041      9.385397     20.388868  11.0000 196.9666
    296    1 Au   79     11.471041     11.471041     18.303224  11.0000 196.9666
    297    1 Au   79      9.385397      9.385397     22.474512  11.0000 196.9666
    298    1 Au   79      9.385397     11.471041     24.560156  11.0000 196.9666
    299    1 Au   79     11.471041      9.385397     24.560156  11.0000 196.9666
    300    1 Au   79     11.471041     11.471041     22.474512  11.0000 196.9666



 SCF PARAMETERS         Density guess:                                    ATOMIC
                        --------------------------------------------------------
                        max_scf:                                             100
                        max_scf_history:                                       0
                        max_diis:                                              4
                        --------------------------------------------------------
                        eps_scf:                                        1.00E-07
                        eps_scf_history:                                0.00E+00
                        eps_diis:                                       1.00E-01
                        eps_eigval:                                     1.00E-05
                        --------------------------------------------------------
                        level_shift [a.u.]:                             0.000000
                        added MOs                                       100    0
                        --------------------------------------------------------
                        Mixing method:                            BROYDEN_MIXING
                                                charge density mixing in g-space
                        --------------------------------------------------------
                        Smear method:                                FERMI_DIRAC
                        Electronic temperature [K]:                        293.0
                        Electronic temperature [a.u.]:                  9.28E-04
                        Accuracy threshold:                             1.00E-10
                        --------------------------------------------------------
                        No outer SCF

 PW_GRID| Information for grid number                                          1
 PW_GRID| Grid distributed over                                    24 processors
 PW_GRID| Real space group dimensions                                    24    1
 PW_GRID| the grid is blocked:                                                NO
 PW_GRID| Cutoff [a.u.]                                                    200.0
 PW_GRID| spherical cutoff:                                                   NO
 PW_GRID|   Bounds   1           -105     104                Points:         210
 PW_GRID|   Bounds   2           -105     104                Points:         210
 PW_GRID|   Bounds   3           -157     157                Points:         315
 PW_GRID| Volume element (a.u.^3)  0.3463E-02     Volume (a.u.^3)     48100.2523
 PW_GRID| Grid span                                                    FULLSPACE
 PW_GRID|   Distribution                         Average         Max         Min
 PW_GRID|   G-Vectors                           578812.5      578970      578760
 PW_GRID|   G-Rays                                2756.2        2757        2756
 PW_GRID|   Real Space Points                   578812.5      595350      529200

 PW_GRID| Information for grid number                                          2
 PW_GRID| Number of the reference grid                                         1
 PW_GRID| Grid distributed over                                    24 processors
 PW_GRID| Real space group dimensions                                    24    1
 PW_GRID| the grid is blocked:                                                NO
 PW_GRID| Cutoff [a.u.]                                                     66.7
 PW_GRID| spherical cutoff:                                                   NO
 PW_GRID|   Bounds   1            -60      59                Points:         120
 PW_GRID|   Bounds   2            -60      59                Points:         120
 PW_GRID|   Bounds   3            -90      89                Points:         180
 PW_GRID| Volume element (a.u.^3)  0.1856E-01     Volume (a.u.^3)     48100.2523
 PW_GRID| Grid span                                                    FULLSPACE
 PW_GRID|   Distribution                         Average         Max         Min
 PW_GRID|   G-Vectors                           108000.0      108360      107640
 PW_GRID|   G-Rays                                 900.0         903         897
 PW_GRID|   Real Space Points                   108000.0      108000      108000

 PW_GRID| Information for grid number                                          3
 PW_GRID| Number of the reference grid                                         1
 PW_GRID| Grid distributed over                                    24 processors
 PW_GRID| Real space group dimensions                                    24    1
 PW_GRID| the grid is blocked:                                                NO
 PW_GRID| Cutoff [a.u.]                                                     22.2
 PW_GRID| spherical cutoff:                                                   NO
 PW_GRID|   Bounds   1            -35      34                Points:          70
 PW_GRID|   Bounds   2            -35      34                Points:          70
 PW_GRID|   Bounds   3            -52      52                Points:         105
 PW_GRID| Volume element (a.u.^3)  0.9349E-01     Volume (a.u.^3)     48100.2523
 PW_GRID| Grid span                                                    FULLSPACE
 PW_GRID|   Distribution                         Average         Max         Min
 PW_GRID|   G-Vectors                            21437.5       21910       21070
 PW_GRID|   G-Rays                                 306.2         313         301
 PW_GRID|   Real Space Points                    21437.5       22050       14700

 PW_GRID| Information for grid number                                          4
 PW_GRID| Number of the reference grid                                         1
 PW_GRID| Grid distributed over                                    24 processors
 PW_GRID| Real space group dimensions                                    24    1
 PW_GRID| the grid is blocked:                                                NO
 PW_GRID| Cutoff [a.u.]                                                      7.4
 PW_GRID| spherical cutoff:                                                   NO
 PW_GRID|   Bounds   1            -20      19                Points:          40
 PW_GRID|   Bounds   2            -20      19                Points:          40
 PW_GRID|   Bounds   3            -30      29                Points:          60
 PW_GRID| Volume element (a.u.^3)  0.5010         Volume (a.u.^3)     48100.2523
 PW_GRID| Grid span                                                    FULLSPACE
 PW_GRID|   Distribution                         Average         Max         Min
 PW_GRID|   G-Vectors                             4000.0        4120        3880
 PW_GRID|   G-Rays                                 100.0         103          97
 PW_GRID|   Real Space Points                     4000.0        4800        2400

 POISSON| Solver                                                        PERIODIC
 POISSON| Periodicity                                                        XYZ

 RS_GRID| Information for grid number                                          1
 RS_GRID|   Bounds   1           -105     104                Points:         210
 RS_GRID|   Bounds   2           -105     104                Points:         210
 RS_GRID|   Bounds   3           -157     157                Points:         315
 RS_GRID| Real space distribution over                                  4 groups
 RS_GRID| Real space distribution along direction                              2
 RS_GRID| Border size                                                         30
 RS_GRID| Real space distribution over                                  6 groups
 RS_GRID| Real space distribution along direction                              3
 RS_GRID| Border size                                                         30
 RS_GRID|   Distribution                         Average         Max         Min
 RS_GRID|   Planes                                 112.5         113         112
 RS_GRID|   Distribution                         Average         Max         Min
 RS_GRID|   Planes                                 112.5         113         112

 RS_GRID| Information for grid number                                          2
 RS_GRID|   Bounds   1            -60      59                Points:         120
 RS_GRID|   Bounds   2            -60      59                Points:         120
 RS_GRID|   Bounds   3            -90      89                Points:         180
 RS_GRID| Real space distribution over                                  4 groups
 RS_GRID| Real space distribution along direction                              2
 RS_GRID| Border size                                                         22
 RS_GRID| Real space distribution over                                  6 groups
 RS_GRID| Real space distribution along direction                              3
 RS_GRID| Border size                                                         22
 RS_GRID|   Distribution                         Average         Max         Min
 RS_GRID|   Planes                                  74.0          74          74
 RS_GRID|   Distribution                         Average         Max         Min
 RS_GRID|   Planes                                  74.0          74          74

 RS_GRID| Information for grid number                                          3
 RS_GRID|   Bounds   1            -35      34                Points:          70
 RS_GRID|   Bounds   2            -35      34                Points:          70
 RS_GRID|   Bounds   3            -52      52                Points:         105
 RS_GRID| Real space fully replicated
 RS_GRID| Group size                                                           1

 RS_GRID| Information for grid number                                          4
 RS_GRID|   Bounds   1            -20      19                Points:          40
 RS_GRID|   Bounds   2            -20      19                Points:          40
 RS_GRID|   Bounds   3            -30      29                Points:          60
 RS_GRID| Real space fully replicated
 RS_GRID| Group size                                                           1

 BFGS| Use rational function optimization for step estimation:                NO
 BFGS| Use model Hessian for initial guess:                                  YES
 BFGS| Restart Hessian:                                                       NO
 BFGS| Trust radius:                                                       0.472

 *******************************************************************************
 ***                     STARTING GEOMETRY OPTIMIZATION                      ***
 ***                                   BFGS                                  ***
 *******************************************************************************

 Number of electrons:                                                       3208
 Number of occupied orbitals:                                               1604
 Number of molecular orbitals:                                              1704

 Number of orbital functions:                                               2716
 Number of independent orbital functions:                                   2716

 Extrapolation method: initial_guess

 Atomic guess: The first density matrix is obtained in terms of atomic orbitals
               and electronic configurations assigned to each atomic kind

 Guess for atomic kind: Au

 Electronic structure
    Total number of core electrons                                         68.00
    Total number of valence electrons                                      11.00
    Total number of electrons                                              79.00
    Multiplicity                                                   not specified
    S   [  2.00  2.00  2.00  2.00  2.00] 1.00
    P   [  6.00  6.00  6.00  6.00]
    D   [ 10.00 10.00]10.00
    F   [ 14.00]


 *******************************************************************************
                  Iteration          Convergence                     Energy [au]
 *******************************************************************************
                          1         0.00000                     -33.033218197848

 Energy components [Hartree]           Total Energy ::          -33.033218197848
                                        Band Energy ::           -1.147505983145
                                     Kinetic Energy ::           24.744064437587
                                   Potential Energy ::          -57.777282635435
                                      Virial (-V/T) ::            2.334995642336
                                        Core Energy ::          -60.197309615487
                                          XC Energy ::           -5.116883226844
                                     Coulomb Energy ::           32.280974644483
                       Total Pseudopotential Energy ::          -85.042885173964
                       Local Pseudopotential Energy ::          -66.341694915099
                    Nonlocal Pseudopotential Energy ::          -18.701190258865
                                        Confinement ::            1.015111208892

 Orbital energies  State     L     Occupation   Energy[a.u.]          Energy[eV]

                       1     0          1.000      -0.213792           -5.817572

                       1     2         10.000      -0.093371           -2.540765


 Total Electron Density at R=0:                                         0.000035

 Guess for atomic kind: S

 Electronic structure
    Total number of core electrons                                         10.00
    Total number of valence electrons                                       6.00
    Total number of electrons                                              16.00
    Multiplicity                                                   not specified
    S   [  2.00  2.00] 2.00
    P   [  6.00] 4.00


 *******************************************************************************
                  Iteration          Convergence                     Energy [au]
 *******************************************************************************
                          1        0.660537E-01                  -9.999037742061
                          2        0.355079E-01                  -9.999866133925
                          3        0.643643E-04                 -10.000216348790
                          4        0.796885E-07                 -10.000216349869

 Energy components [Hartree]           Total Energy ::          -10.000216349869
                                        Band Energy ::           -2.121494693893
                                     Kinetic Energy ::            3.789396533726
                                   Potential Energy ::          -13.789612883596
                                      Virial (-V/T) ::            3.638999709021
                                        Core Energy ::          -16.443520246889
                                          XC Energy ::           -2.069152856162
                                     Coulomb Energy ::            8.512456753182
                       Total Pseudopotential Energy ::          -20.288997453216
                       Local Pseudopotential Energy ::          -22.511640900540
                    Nonlocal Pseudopotential Energy ::            2.222643447324
[...]
 COUNTER                                    TOTAL       BLAS       SMM       ACC
 flops     5 x     8 x     5               576000       0.0%    100.0%      0.0%
 flops     5 x     8 x    13              2995200       0.0%    100.0%      0.0%
 flops    13 x     8 x     5              2995200       0.0%    100.0%      0.0%
 flops    13 x     8 x    13             15575040       0.0%    100.0%      0.0%
 flops     5 x     5 x   136             26928000       0.0%    100.0%      0.0%
 flops     5 x     8 x     9             54950400       0.0%    100.0%      0.0%
 flops     9 x     8 x     5             54950400       0.0%    100.0%      0.0%
 flops    13 x     5 x   136            112020480       0.0%    100.0%      0.0%
 flops     5 x    13 x   136            112020480       0.0%    100.0%      0.0%
 flops     5 x    32 x     5            122112000       0.0%    100.0%      0.0%
 flops     5 x     5 x   128            152064000       0.0%    100.0%      0.0%
 flops     5 x     5 x   160            158400000       0.0%    100.0%      0.0%
 flops    13 x     8 x     9            233951328       0.0%    100.0%      0.0%
 flops     9 x     8 x    13            233951328       0.0%    100.0%      0.0%
 flops    13 x     5 x   128            632586240       0.0%    100.0%      0.0%
 flops     5 x    13 x   128            632586240       0.0%    100.0%      0.0%
 flops    13 x    32 x     5            634982400       0.0%    100.0%      0.0%
 flops     5 x    32 x    13            634982400       0.0%    100.0%      0.0%
 flops    13 x    13 x   136            655319808       0.0%    100.0%      0.0%
 flops    13 x     5 x   160            658944000       0.0%    100.0%      0.0%
 flops     5 x    13 x   160            658944000       0.0%    100.0%      0.0%
 flops     5 x     9 x   136           2026062720       0.0%    100.0%      0.0%
 flops     9 x     5 x   136           2084227200       0.0%    100.0%      0.0%
 flops    13 x    32 x    13           3301908480       0.0%    100.0%      0.0%
 flops    13 x    13 x   128           3700629504       0.0%    100.0%      0.0%
 flops    13 x    13 x   160           3854822400       0.0%    100.0%      0.0%
 flops     9 x     8 x     9           7883371008       0.0%    100.0%      0.0%
 flops    13 x     9 x   136           8691293520       0.0%    100.0%      0.0%
 flops     9 x    13 x   136           8808755904       0.0%    100.0%      0.0%
 flops     5 x     9 x   128          11441295360       0.0%    100.0%      0.0%
 flops     9 x    32 x     5          11649484800       0.0%    100.0%      0.0%
 flops     5 x    32 x     9          11649484800       0.0%    100.0%      0.0%
 flops     9 x     5 x   128          11769753600       0.0%    100.0%      0.0%
 flops     5 x     9 x   160          11918016000       0.0%    100.0%      0.0%
 flops     9 x     5 x   160          12260160000       0.0%    100.0%      0.0%
 flops    13 x     9 x   128          49080245760       0.0%    100.0%      0.0%
 flops    13 x    32 x     9          49597681536       0.0%    100.0%      0.0%
 flops     9 x    32 x    13          49597681536       0.0%    100.0%      0.0%
 flops     9 x    13 x   128          49743562752       0.0%    100.0%      0.0%
 flops    13 x     9 x   160          51125256000       0.0%    100.0%      0.0%
 flops     9 x    13 x   160          51816211200       0.0%    100.0%      0.0%
 flops     9 x     9 x   136         296086770144       0.0%    100.0%      0.0%
 flops     9 x    32 x     9        1671274653696       0.0%    100.0%      0.0%
 flops     9 x     9 x   128        1672019407872       0.0%    100.0%      0.0%
 flops     9 x     9 x   160        1741686883200       0.0%    100.0%      0.0%
 flops inhomo. stacks                           0       0.0%      0.0%      0.0%
 flops total                         5.798859E+12       0.0%    100.0%      0.0%
 flops max/rank                    249.478287E+09       0.0%    100.0%      0.0%
 matmuls inhomo. stacks                         0       0.0%      0.0%      0.0%
 matmuls total                          523179852       0.0%    100.0%      0.0%
 number of processed stacks               1340008       0.0%    100.0%      0.0%
 average stack size                                     0.0     390.4       0.0
 marketing flops                    11.848123E+12
 -------------------------------------------------------------------------------
 # multiplications                            486
 max memory usage/rank               2.440892E+09
 # max total images/rank                        3
 # max 3D layers                                1
 # MPI messages exchanged                  221616
 MPI messages size (bytes):
  total size                       148.498678E+09
  min size                         460.800000E+03
  max size                           1.038640E+06
  average size                     670.072000E+03
 MPI breakdown and total messages size (bytes):
             size <=      128                   0                        0
       128 < size <=     8192                   0                        0
      8192 < size <=    32768                   0                        0
     32768 < size <=   131072                   0                        0
    131072 < size <=  4194304              221616             148498562016
   4194304 < size <= 16777216                   0                        0
  16777216 < size                               0                        0
 -------------------------------------------------------------------------------

 *** WARNING in dbcsr_mm.F:290 :: Using a non-square number of MPI ranks ***
 *** might lead to poor performance. Used ranks: 24 Suggested: 25 49     ***

 -------------------------------------------------------------------------------
 -                                                                             -
 -                      DBCSR MESSAGE PASSING PERFORMANCE                      -
 -                                                                             -
 -------------------------------------------------------------------------------
 ROUTINE             CALLS      AVE VOLUME [Bytes]
 MP_Bcast               46                     12.
 MP_Allreduce         3112                      9.
 MP_Alltoall         12750                 690726.
 MP_ISend            23148                 299103.
 MP_IRecv            22176                 306457.
 -------------------------------------------------------------------------------

 -------------------------------------------------------------------------------
 -                                                                             -
 -                                DBM STATISTICS                               -
 -                                                                             -
 -------------------------------------------------------------------------------
    M  x    N  x    K                                          COUNT     PERCENT
 -------------------------------------------------------------------------------

 -------------------------------------------------------------------------------
 -                                                                             -
 -                                GRID STATISTICS                              -
 -                                                                             -
 -------------------------------------------------------------------------------
 LP    KERNEL             BACKEND                              COUNT     PERCENT
 4     collocate ortho    REF                               93435250      48.55%
 4     integrate ortho    REF                               88302347      45.88%
 5     integrate ortho    REF                                4961441       2.58%
 3     collocate ortho    REF                                1461734       0.76%
 3     integrate ortho    REF                                1384305       0.72%
 0     collocate general  REF                                1360800       0.71%
 0     integrate general  REF                                1209600       0.63%
 1     integrate general  REF                                 144000       0.07%
 2     collocate ortho    REF                                 135214       0.07%
 2     integrate ortho    REF                                  69064       0.04%
 1     collocate ortho    REF                                    840       0.00%
 -------------------------------------------------------------------------------

 MEMORY| Estimated peak process memory [MiB]                                2328

 -------------------------------------------------------------------------------
 ----                             MULTIGRID INFO                            ----
 -------------------------------------------------------------------------------
 count for grid        1:         292576          cutoff [a.u.]          200.00
 count for grid        2:        2477278          cutoff [a.u.]           66.67
 count for grid        3:        1740577          cutoff [a.u.]           22.22
 count for grid        4:        2842768          cutoff [a.u.]            7.41
 total gridlevel count  :        7353199

 -------------------------------------------------------------------------------
 -                                                                             -
 -                         MESSAGE PASSING PERFORMANCE                         -
 -                                                                             -
 -------------------------------------------------------------------------------

 ROUTINE             CALLS      AVE VOLUME [Bytes]
 MP_Group                4
 MP_Bcast              598                1074941.
 MP_Allreduce         6177                    814.
 MP_Sync               420
 MP_Alltoall          5398               15353498.
 MP_ISendRecv        36570                 107400.
 MP_Wait             88433
 MP_comm_split          20
 MP_ISend            46844                 491681.
 MP_IRecv            46844                 491722.
 MP_Recv              1686                 553842.
 MP_Write_All           63                1092525.
 -------------------------------------------------------------------------------


 -------------------------------------------------------------------------------
 -                                                                             -
 -                           R E F E R E N C E S                               -
 -                                                                             -
 -------------------------------------------------------------------------------
 
 CP2K version 2022.1 (Development Version), the CP2K developers group (2022).
 CP2K is freely available from https://www.cp2k.org/ .

 Kuehne,Thomas D.; Iannuzzi,Marcella; Del Ben,Mauro;
 Rybkin,Vladimir V.; Seewald,Patrick; Stein,Frederick; Laino,Teodoro;
 Khaliullin,Rustam Z.; Schuett,Ole; Schiffmann,Florian; Golze,Dorothea;
 Wilhelm,Jan; Chulkov,Sergey; Bani-Hashemian,Mohammad Hossein;
 Weber,Valery; Borstnik,Urban; Taillefumier,Mathieu;
 Jakobovits,Alice Shoshana; Lazzaro,Alfio; Pabst,Hans; Mueller,Tiziano;
 Schade,Robert; Guidon,Manuel; Andermatt,Samuel; Holmberg,Nico;
 Schenter,Gregory K.; Hehn,Anna; Bussy,Augustin; Belleflamme,Fabian;
 Tabacchi,Gloria; Gloess,Andreas; Lass,Michael; Bethune,Iain;
 Mundy,Christopher J.; Plessl,Christian; Watkins,Matt;
 VandeVondele,Joost; Krack,Matthias; Hutter,Juerg. 
 The Journal of Chemical Physics, 152 (19), (2020). 
 CP2K: An electronic structure and molecular dynamics software package -
 Quickstep: Efficient and accurate electronic structure calculations.
 https://doi.org/10.1063/5.0007045

 Schuett, Ole; Messmer, Peter; Hutter, Juerg; VandeVondele, Joost. 
 Electronic Structure Calculations on Graphics Processing Units, John
 Wiley & Sons, Ltd, 173-190 (2016). 
 GPU-Accelerated Sparse Matrix-Matrix Multiplication for
 Linear Scaling Density Functional Theory.
 https://doi.org/10.1002/9781118670712.ch8

 Heinecke, A; Henry, G; Hutchinson, M; Pabst, H. 
 Proceedings of Intl. Supercomputing Conference, 981-991 (2016). 
 LIBXSMM: Accelerating Small Matrix Multiplications
 by Runtime Code Generation.
 https://doi.org/10.1109/SC.2016.83

 Borstnik, U; VandeVondele, J; Weber, V; Hutter, J. 
 PARALLEL COMPUTING, 40 (5-6), 47-58 (2014). 
 Sparse matrix multiplication: The distributed block-compressed sparse
 row library.
 https://doi.org/10.1016/j.parco.2014.03.012

 Hutter, J; Iannuzzi, M; Schiffmann, F; VandeVondele, J. 
 WIREs Comput Mol Sci., 4 (1), 15-25 (2014). 
 CP2K: atomistic simulations of condensed matter systems.
 https://doi.org/10.1002/wcms.1159

 VandeVondele, J; Hutter, J. 
 JOURNAL OF CHEMICAL PHYSICS, 127 (11), 114105 (2007). 
 Gaussian basis sets for accurate calculations on molecular systems in
 gas and condensed phases.
 https://doi.org/10.1063/1.2770708

 Kuhne, TD; Krack, M; Mohamed, FR; Parrinello, M. 
 PHYSICAL REVIEW LETTERS, 98 (6), 066401 (2007). 
 Efficient and accurate Car-Parrinello-like approach to
 Born-Oppenheimer molecular dynamics.
 https://doi.org/10.1103/PhysRevLett.98.066401

 Krack, M. 
 THEORETICAL CHEMISTRY ACCOUNTS, 114 (1-3), 145-152 (2005). 
 Pseudopotentials for H to Kr optimized for gradient-corrected
 exchange-correlation functionals.
 https://doi.org/10.1007/s00214-005-0655-y

 VandeVondele, J; Krack, M; Mohamed, F; Parrinello, M; Chassaing, T;
 Hutter, J. COMPUTER PHYSICS COMMUNICATIONS, 167 (2), 103-128 (2005). 
 QUICKSTEP: Fast and accurate density functional calculations using a
 mixed Gaussian and plane waves approach.
 https://doi.org/10.1016/j.cpc.2004.12.014

 Frigo, M; Johnson, SG. 
 PROCEEDINGS OF THE IEEE, 93 (2), 216-231 (2005). 
 The design and implementation of FFTW3.
 https://doi.org/10.1109/JPROC.2004.840301

 Kolafa, J. 
 JOURNAL OF COMPUTATIONAL CHEMISTRY, 25 (3), 335-342 (2004). 
 Time-reversible always stable predictor-corrector method for
 molecular dynamics of polarizable molecules.
 https://doi.org/10.1002/jcc.10385

 Hartwigsen, C; Goedecker, S; Hutter, J. 
 PHYSICAL REVIEW B, 58 (7), 3641-3662 (1998). 
 Relativistic separable dual-space Gaussian pseudopotentials from H to Rn.
 https://doi.org/10.1103/PhysRevB.58.3641

 Lippert, G; Hutter, J; Parrinello, M. 
 MOLECULAR PHYSICS, 92 (3), 477-487 (1997). 
 A hybrid Gaussian and plane wave density functional scheme.
 https://doi.org/10.1080/002689797170220

 Goedecker, S; Teter, M; Hutter, J. 
 PHYSICAL REVIEW B, 54 (3), 1703-1710 (1996). 
 Separable dual-space Gaussian pseudopotentials.
 https://doi.org/10.1103/PhysRevB.54.1703


 -------------------------------------------------------------------------------
 -                                                                             -
 -                                T I M I N G                                  -
 -                                                                             -
 -------------------------------------------------------------------------------
 SUBROUTINE                       CALLS  ASD         SELF TIME        TOTAL TIME
                                MAXIMUM       AVERAGE  MAXIMUM  AVERAGE  MAXIMUM
 CP2K                                 1  1.0    0.235    0.243  999.502  999.503
 cp_geo_opt                           1  2.0    0.020    0.020  998.866  998.874
 geoopt_bfgs                          1  3.0    0.028    0.035  998.845  998.853
 cp_eval_at                          21  4.0    0.004    0.021  995.030  995.032
 qs_forces                           20  5.0    0.004    0.004  961.333  961.335
 qs_energies                         21  6.0    0.002    0.003  940.459  940.473
 scf_env_do_scf                      21  7.0    0.002    0.003  830.681  834.923
 scf_env_do_scf_inner_loop          356  8.0    0.014    0.102  830.604  834.843
 qs_scf_new_mos                     356  9.0    0.006    0.007  302.630  302.833
 eigensolver                        356 10.0    0.023    0.033  273.231  273.312
 rebuild_ks_matrix                  376  9.8    0.001    0.001  249.810  249.844
 qs_ks_build_kohn_sham_matrix       376 10.8    0.056    0.062  249.809  249.843
 qs_ks_update_qs_env                356  9.0    0.002    0.005  229.662  229.697
 cp_fm_syevd                        396 10.7    0.005    0.007  213.864  214.546
 cp_fm_syevd_base                   396 11.8  212.870  213.762  212.870  213.762
 qs_rho_update_rho_low              377  9.0    0.002    0.002  205.030  205.049
 calculate_rho_elec                 377 10.0    0.801    0.836  205.028  205.047
 sum_up_and_integrate               376 11.8    2.784    2.931  186.118  186.237
 integrate_v_rspace                 376 12.8    0.018    0.022  183.333  183.667
 pw_transfer                       5083 12.7    0.434    0.484  159.989  164.043
 fft_wrap_pw1pw2                   4331 13.7    0.070    0.078  154.554  158.585
 fft_wrap_pw1pw2_200               1946 14.1   14.386   15.273  144.366  148.843
 grid_integrate_task_list           376 13.8  114.345  115.507  114.345  115.507
 grid_collocate_task_list           377 11.0  112.932  115.010  112.932  115.010
 fft3d_ps                          4331 15.7   68.343   74.295  104.373  110.245
 gspace_mixing                      335  9.0    0.712    0.746  101.215  101.215
 density_rs2pw                      377 11.0    0.030    0.038   89.043   92.205
 broyden_mixing                     335 10.0   74.876   75.219   75.397   75.516
 rs_pw_transfer                    3263 13.2    0.072    0.084   61.634   66.532
 potential_pw2rs                    376 13.8    0.074    0.085   65.034   65.375
 cp_fm_cholesky_restore            1068 11.0   62.329   63.185   62.329   63.185
 scf_post_calculation_gpw            21  7.0    0.001    0.002   53.149   53.419
 init_scf_run                        21  7.0    0.001    0.002   41.819   41.837
 scf_env_initial_rho_setup           21  8.0    0.000    0.001   40.136   40.155
 wfi_extrapolate                     21  9.0    0.003    0.007   36.933   36.934
 build_core_hamiltonian_matrix_      20  6.0    0.001    0.001   30.968   33.990
 mp_waitany                       46844 15.1   22.816   29.145   22.816   29.145
 rs_pw_transfer_RS2PW_200           461 12.7    9.302   11.071   22.730   27.074
 build_core_ppnl_forces              20  7.0   23.644   26.321   23.644   26.321
 write_available_results             21  8.0    0.000    0.000   25.290   25.556
 write_mo_free_results               21  9.0   11.456   11.769   25.288   25.554
 rs_pw_transfer_PW2RS_200           417 15.4   11.571   11.808   24.855   25.206
 dbcsr_multiply_generic             486 12.0    0.047    0.049   24.357   24.587
 cp_dbcsr_plus_fm_fm_t_native       396 10.9    0.012    0.016   24.182   24.478
 calculate_dm_sparse                376 10.0    0.050    0.058   23.391   23.657
 x_to_yz                           2258 17.0   12.240   13.545   20.775   22.136
 mp_sum_d                          4057 10.7    8.635   21.158    8.635   21.158
 qs_ks_update_qs_env_forces          20  6.0    0.000    0.000   20.560   20.561
 qs_vxc_create                      376 11.8    0.010    0.015   16.946   19.996
 -------------------------------------------------------------------------------

 The number of warnings for this run is : 1
 
 -------------------------------------------------------------------------------
  **** **** ******  **  PROGRAM ENDED AT                 2022-10-20 12:48:19.306
 ***** ** ***  *** **   PROGRAM RAN ON                     cn1023.scarf.rl.ac.uk
 **    ****   ******    PROGRAM RAN BY                                 scarf1157
 ***** **    ** ** **   PROGRAM PROCESS ID                                 28708
  **** **  *******  **  PROGRAM STOPPED IN /work4/scd/scarf1157/work/testing/cp2
                                           k-smeagol/bdt/hollow-site/em-cp2k/geo
                                           _opt/dzp
