ATOMS
H             0.00000000      0.00000000     -0.00998254            -0.00064400      0.70710649     -0.00002224
H             0.00000000      0.00000000      0.73998166             0.00064400     -0.70710649      0.00002224
