     183
 i =       0, E =    -5729.7158660542
 Au         0.0002494950        0.0004935591        0.0003639503
 Au         0.0003026976        2.9554935471        0.0001844428
 Au         0.0003559182        5.9114935350        0.0000048745
 Au         2.9562494929        0.0004403315        0.0003064388
 Au         2.9563026954        2.9554403194        0.0001269313
 Au         2.9563559160        5.9114403074       -0.0000526370
 Au         5.9122494907        0.0003871038        0.0002489273
 Au         5.9123026932        2.9553870918        0.0000694198
 Au         5.9123559138        5.9113870798       -0.0001101485
 Au         8.6702494886        0.0003374415        0.0001952680
 Au         8.6703026912        2.9553374295        0.0000157605
 Au         8.6703559118        5.9113374175       -0.0001638078
 Au        11.6262494865        0.0002842139        0.0001377565
 Au        11.6263026890        2.9552842019       -0.0000417510
 Au        11.6263559096        5.9112841898       -0.0002213193
 Au         1.4783167718        1.4785938991        2.0902454019
 Au         1.4783699743        4.4335938870        2.0900658943
 Au         1.4784231949        7.3895938750        2.0898863260
 Au         4.4343167696        1.4785406714        2.0901878903
 Au         4.4343699722        4.4335406594        2.0900083828
 Au         4.4344231927        7.3895406474        2.0898288145
 Au         7.1923167676        1.4784910091        2.0901342311
 Au         7.1923699701        4.4334909971        2.0899547236
 Au         7.1924231907        7.3894909850        2.0897751553
 Au        10.1483167654        1.4784377815        2.0900767196
 Au        10.1483699679        4.4334377695        2.0898972120
 Au        10.1484231885        7.3894377574        2.0897176438
 Au        13.1043167632        1.4783845539        2.0900192081
 Au        13.1043699658        4.4333845418        2.0898397005
 Au        13.1044231863        7.3893845298        2.0896601322
 Au         0.0003308301        0.0007474787        4.1803639332
 Au         0.0003840327        2.9557474667        4.1801844256
 Au         0.0004372532        5.9117474546        4.1800048574
 Au         2.9563308279        0.0006942511        4.1803064217
 Au         2.9563840305        2.9556942390        4.1801269141
 Au         2.9564372511        5.9116942270        4.1799473458
 Au         5.9123308258        0.0006410234        4.1802489102
 Au         5.9123840283        2.9556410114        4.1800694026
 Au         5.9124372489        5.9116409994        4.1798898343
 Au         8.6703308237        0.0005913611        4.1801952509
 Au         8.6703840263        2.9555913491        4.1800157434
 Au         8.6704372468        5.9115913371        4.1798361751
 Au        11.6263308215        0.0005381335        4.1801377394
 Au        11.6263840241        2.9555381215        4.1799582318
 Au        11.6264372447        5.9115381094        4.1797786636
 Au         1.4783981068        1.4788478187        6.2702453847
 Au         1.4784513094        4.4338478066        6.2700658772
 Au         1.4785045300        7.3898477946        6.2698863089
 Au         4.4343981047        1.4787945910        6.2701878732
 Au         4.4344513072        4.4337945790        6.2700083657
 Au         4.4345045278        7.3897945670        6.2698287974
 Au         7.1923981026        1.4787449287        6.2701342139
 Au         7.1924513052        4.4337449167        6.2699547064
 Au         7.1925045258        7.3897449046        6.2697751381
 Au        10.1483981004        1.4786917011        6.2700767024
 Au        10.1484513030        4.4336916891        6.2698971949
 Au        10.1485045236        7.3896916770        6.2697176266
 Au        13.1043980983        1.4786384735        6.2700191909
 Au        13.1044513008        4.4336384614        6.2698396834
 Au        13.1045045214        7.3896384494        6.2696601151
 Au         0.0004121652        0.0010013983        8.3603639160
 Au         0.0004653677        2.9560013863        8.3601844085
 Au         0.0005185883        5.9120013742        8.3600048402
 Au         2.9564121630        0.0009481707        8.3603064045
 Au         2.9564653656        2.9559481586        8.3601268970
 Au         2.9565185861        5.9119481466        8.3599473287
 Au         5.9124121608        0.0008949430        8.3602488930
 Au         5.9124653634        2.9558949310        8.3600693855
 Au         5.9125185840        5.9118949190        8.3598898172
 Au         8.6704121588        0.0008452807        8.3601952337
 Au         8.6704653614        2.9558452687        8.3600157262
 Au         8.6705185819        5.9118452566        8.3598361579
 Au        11.6264121566        0.0007920531        8.3601377222
 Au        11.6264653592        2.9557920411        8.3599582147
 Au        11.6265185797        5.9117920290        8.3597786464
 Au         1.4784794419        1.4791017383       10.4502453676
 Au         1.4785326445        4.4341017262       10.4500658600
 Au         1.4785858650        7.3901017142       10.4498862917
 Au         4.4344794397        1.4790485106       10.4501878560
 Au         4.4345326423        4.4340484986       10.4500083485
 Au         4.4345858629        7.3900484866       10.4498287802
 Au         7.1924794377        1.4789988483       10.4501341968
 Au         7.1925326403        4.4339988363       10.4499546892
 Au         7.1925858608        7.3899988242       10.4497751210
 Au        10.1484794355        1.4789456207       10.4500766853
 Au        10.1485326381        4.4339456087       10.4498971777
 Au        10.1485858586        7.3899455966       10.4497176094
 Au        13.1044794333        1.4788923931       10.4500191738
 Au        13.1045326359        4.4338923810       10.4498396662
 Au        13.1045858565        7.3898923690       10.4496600979
  N         4.8557900344        5.9125870128       12.0318103672
  N         9.5285901060        5.9144029889       12.0338193284
  N         7.1925906031        5.9350954168       12.0398635014
  H        10.3349362805        5.9152567744       12.6623609298
  H         4.0613125947        5.9114932487       12.6776744858
  C         8.3713994263        5.9206113434       12.7172940441
  C         5.9998726414        5.9223853336       12.7756242288
  N         8.3114276392        5.9132206336       14.0773907612
  N         5.9316581126        5.9248088284       14.0999039468
  H         9.1713421834        5.8795189885       14.6205386301
  C         7.0808822494        5.9313770584       14.8360205821
  N         7.1202788136        5.8898473800       16.1231475133
  H         7.6443586721        6.2779771149       16.6343436481
 Au         7.2527657848        5.9356424107       21.0428634796
 Au         5.8633261678        7.3147836756       22.9918119865
 Au         8.7422767013        4.4357342158       22.9919258394
 Au         5.8632766853        4.4347836868       22.9919795287
 Au         8.7423261657        7.3147342045       22.9917583579
 Au         1.4787641536        1.4799905783       25.0822453075
 Au         1.4788173561        4.4349905663       25.0820658000
 Au         1.4788705767        7.3909905543       25.0818862317
 Au         4.4347641514        1.4799373507       25.0821877960
 Au         4.4348173540        4.4349373387       25.0820082885
 Au         4.4348705745        7.3909373266       25.0818287202
 Au         7.1927641494        1.4798876884       25.0821341367
 Au         7.1928173519        4.4348876764       25.0819546292
 Au         7.1928705725        7.3908876643       25.0817750609
 Au        10.1487641472        1.4798344608       25.0820766252
 Au        10.1488173497        4.4348344487       25.0818971177
 Au        10.1488705703        7.3908344367       25.0817175494
 Au        13.1047641450        1.4797812331       25.0820191137
 Au        13.1048173476        4.4347812211       25.0818396062
 Au        13.1048705681        7.3907812091       25.0816600379
 Au         0.0007782119        0.0021441580       27.1723638388
 Au         0.0008314145        2.9571441459       27.1721843313
 Au         0.0008846351        5.9131441339       27.1720047630
 Au         2.9567782097        0.0020909303       27.1723063273
 Au         2.9568314123        2.9570909183       27.1721268198
 Au         2.9568846329        5.9130909063       27.1719472515
 Au         5.9127782076        0.0020377027       27.1722488158
 Au         5.9128314101        2.9570376907       27.1720693083
 Au         5.9128846307        5.9130376786       27.1718897400
 Au         8.6707782055        0.0019880404       27.1721951566
 Au         8.6708314081        2.9569880284       27.1720156490
 Au         8.6708846287        5.9129880163       27.1718360807
 Au        11.6267782034        0.0019348128       27.1721376450
 Au        11.6268314059        2.9569348007       27.1719581375
 Au        11.6268846265        5.9129347887       27.1717785692
 Au         1.4788454887        1.4802444979       29.2622452904
 Au         1.4788986912        4.4352444859       29.2620657828
 Au         1.4789519118        7.3912444739       29.2618862145
 Au         4.4348454865        1.4801912703       29.2621877788
 Au         4.4348986890        4.4351912583       29.2620082713
 Au         4.4349519096        7.3911912462       29.2618287030
 Au         7.1928454844        1.4801416080       29.2621341196
 Au         7.1928986870        4.4351415960       29.2619546121
 Au         7.1929519076        7.3911415839       29.2617750438
 Au        10.1488454823        1.4800883804       29.2620766081
 Au        10.1488986848        4.4350883683       29.2618971005
 Au        10.1489519054        7.3910883563       29.2617175323
 Au        13.1048454801        1.4800351527       29.2620190966
 Au        13.1048986826        4.4350351407       29.2618395890
 Au        13.1049519032        7.3910351287       29.2616600207
 Au         0.0008595470        0.0023980776       31.3523638217
 Au         0.0009127496        2.9573980655       31.3521843142
 Au         0.0009659701        5.9133980535       31.3520047459
 Au         2.9568595448        0.0023448499       31.3523063102
 Au         2.9569127474        2.9573448379       31.3521268026
 Au         2.9569659679        5.9133448259       31.3519472344
 Au         5.9128595426        0.0022916223       31.3522487987
 Au         5.9129127452        2.9572916103       31.3520692911
 Au         5.9129659658        5.9132915982       31.3518897228
 Au         8.6708595406        0.0022419600       31.3521951394
 Au         8.6709127432        2.9572419480       31.3520156319
 Au         8.6709659637        5.9132419359       31.3518360636
 Au        11.6268595384        0.0021887324       31.3521376279
 Au        11.6269127410        2.9571887203       31.3519581203
 Au        11.6269659615        5.9131887083       31.3517785521
 Au         1.4789268237        1.4804984175       33.4422452732
 Au         1.4789800263        4.4354984055       33.4420657657
 Au         1.4790332469        7.3914983935       33.4418861974
 Au         4.4349268215        1.4804451899       33.4421877617
 Au         4.4349800241        4.4354451779       33.4420082542
 Au         4.4350332447        7.3914451658       33.4418286859
 Au         7.1929268195        1.4803955276       33.4421341024
 Au         7.1929800221        4.4353955156       33.4419545949
 Au         7.1930332426        7.3913955035       33.4417750266
 Au        10.1489268173        1.4803423000       33.4420765909
 Au        10.1489800199        4.4353422879       33.4418970834
 Au        10.1490332405        7.3913422759       33.4417175151
 Au        13.1049268152        1.4802890723       33.4420190794
 Au        13.1049800177        4.4352890603       33.4418395719
 Au        13.1050332383        7.3912890483       33.4416600036
     183
 i =       1, E =    -5729.7518406793
 Au         0.0002526463        0.0005000566        0.0003695315
 Au         0.0003066969        2.9555000444        0.0001873726
 Au         0.0003607658        5.9115000322        0.0000051520
 Au         2.9562526441        0.0004459806        0.0003111663
 Au         2.9563066947        2.9554459684        0.0001290074
 Au         2.9563607636        5.9114459561       -0.0000532132
 Au         5.9122526419        0.0003919045        0.0002528011
 Au         5.9123066925        2.9553918923        0.0000706422
 Au         5.9123607614        5.9113918801       -0.0001115784
 Au         8.6702526398        0.0003414506        0.0001983453
 Au         8.6703066904        2.9553414384        0.0000161864
 Au         8.6703607593        5.9113414262       -0.0001660341
 Au        11.6262526376        0.0002873746        0.0001399801
 Au        11.6263066882        2.9552873624       -0.0000421788
 Au        11.6263607571        5.9112873502       -0.0002243993
 Au         1.4783209509        1.4786018475        2.0902492299
 Au         1.4783750014        4.4336018353        2.0900670710
 Au         1.4784290703        7.3896018231        2.0898848504
 Au         4.4343209486        1.4785477715        2.0901908647
 Au         4.4343749992        4.4335477593        2.0900087058
 Au         4.4344290681        7.3895477470        2.0898264852
 Au         7.1923209466        1.4784973176        2.0901364089
 Au         7.1923749972        4.4334973054        2.0899542500
 Au         7.1924290661        7.3894972931        2.0897720295
 Au        10.1483209444        1.4784432415        2.0900780438
 Au        10.1483749950        4.4334432293        2.0898958848
 Au        10.1484290638        7.3894432171        2.0897136643
 Au        13.1043209422        1.4783891655        2.0900196786
 Au        13.1043749927        4.4333891533        2.0898375196
 Au        13.1044290616        7.3893891411        2.0896552991
 Au         0.0003351887        0.0007577267        4.1803695141
 Au         0.0003892393        2.9557577145        4.1801873552
 Au         0.0004433082        5.9117577022        4.1800051346
 Au         2.9563351865        0.0007036506        4.1803111489
 Au         2.9563892371        2.9557036384        4.1801289900
 Au         2.9564433060        5.9117036262        4.1799467694
 Au         5.9123351843        0.0006495746        4.1802527837
 Au         5.9123892349        2.9556495624        4.1800706248
 Au         5.9124433038        5.9116495502        4.1798884042
 Au         8.6703351822        0.0005991207        4.1801983279
 Au         8.6703892328        2.9555991085        4.1800161690
 Au         8.6704433017        5.9115990963        4.1798339485
 Au        11.6263351800        0.0005450446        4.1801399627
 Au        11.6263892306        2.9555450324        4.1799578038
 Au        11.6264432995        5.9115450202        4.1797755833
 Au         1.4784034932        1.4788595176        6.2702492125
 Au         1.4784575438        4.4338595054        6.2700670536
 Au         1.4785116127        7.3898594931        6.2698848330
 Au         4.4344034910        1.4788054415        6.2701908473
 Au         4.4344575416        4.4338054293        6.2700086884
 Au         4.4345116105        7.3898054171        6.2698264678
 Au         7.1924034890        1.4787549876        6.2701363915
 Au         7.1924575396        4.4337549754        6.2699542326
 Au         7.1925116084        7.3897549632        6.2697720121
 Au        10.1484034868        1.4787009116        6.2700780263
 Au        10.1484575373        4.4337008994        6.2698958674
 Au        10.1485116062        7.3897008871        6.2697136469
 Au        13.1044034845        1.4786468355        6.2700196611
 Au        13.1044575351        4.4336468233        6.2698375022
 Au        13.1045116040        7.3896468111        6.2696552817
 Au         0.0004177311        0.0010153967        8.3603694967
 Au         0.0004717817        2.9560153845        8.3601873378
 Au         0.0005258506        5.9120153723        8.3600051172
 Au         2.9564177289        0.0009613207        8.3603111315
 Au         2.9564717795        2.9559613085        8.3601289726
 Au         2.9565258484        5.9119612963        8.3599467520
 Au         5.9124177267        0.0009072446        8.3602527663
 Au         5.9124717773        2.9559072324        8.3600706074
 Au         5.9125258461        5.9119072202        8.3598883868
 Au         8.6704177246        0.0008567907        8.3601983105
 Au         8.6704717752        2.9558567785        8.3600161516
 Au         8.6705258441        5.9118567663        8.3598339311
 Au        11.6264177224        0.0008027147        8.3601399453
 Au        11.6264717730        2.9558027025        8.3599577864
 Au        11.6265258419        5.9118026903        8.3597755659
 Au         1.4784860356        1.4791171876       10.4502491951
 Au         1.4785400862        4.4341171754       10.4500670362
 Au         1.4785941551        7.3901171632       10.4498848156
 Au         4.4344860334        1.4790631116       10.4501908299
 Au         4.4345400840        4.4340630994       10.4500086710
 Au         4.4345941529        7.3900630871       10.4498264504
 Au         7.1924860313        1.4790126577       10.4501363741
 Au         7.1925400819        4.4340126455       10.4499542152
 Au         7.1925941508        7.3900126332       10.4497719947
 Au        10.1484860291        1.4789585816       10.4500780089
 Au        10.1485400797        4.4339585694       10.4498958500
 Au        10.1485941486        7.3899585572       10.4497136295
 Au        13.1044860269        1.4789045056       10.4500196437
 Au        13.1045400775        4.4339044934       10.4498374848
 Au        13.1045941464        7.3899044812       10.4496552643
  N         4.8557954266        5.9125963183       12.0318107072
  N         9.5285984299        5.9144124202       12.0338168517
  N         7.1925989348        5.9351106525       12.0398616805
  H        10.3346095493        5.9153755409       12.6633663946
  H         4.0615832241        5.9115524396       12.6784512526
  C         8.3727760501        5.9213832154       12.7225414364
  C         6.0002924106        5.9218689110       12.7834596218
  N         8.3120043205        5.9157572725       14.0740253704
  N         5.9303202727        5.9231575948       14.0953240894
  H         9.1712813706        5.8800169766       14.6206327265
  C         7.0852625969        5.9315674663       14.8464615012
  N         7.0385636466        5.8431015885       16.0475716448
  H         7.7165694063        6.3332205968       16.7032941634
 Au         7.2518975396        5.9356657229       21.0428616580
 Au         5.8640633478        7.3130360988       22.9918094052
 Au         8.7412400795        4.4357588523       22.9919249366
 Au         5.8640130708        4.4348091177       22.9919794238
 Au         8.7412903382        7.3129858334       22.9917549796
 Au         1.4787749734        1.4800191561       25.0822491342
 Au         1.4788290240        4.4350191439       25.0820669753
 Au         1.4788830929        7.3910191317       25.0818847547
 Au         4.4347749712        1.4799650800       25.0821907690
 Au         4.4348290218        4.4349650678       25.0820086101
 Au         4.4348830907        7.3909650556       25.0818263895
 Au         7.1927749692        1.4799146261       25.0821363132
 Au         7.1928290197        4.4349146139       25.0819541543
 Au         7.1928830886        7.3909146017       25.0817719338
 Au        10.1487749669        1.4798605501       25.0820779480
 Au        10.1488290175        4.4348605379       25.0818957891
 Au        10.1488830864        7.3908605257       25.0817135686
 Au        13.1047749647        1.4798064741       25.0820195828
 Au        13.1048290153        4.4348064618       25.0818374239
 Au        13.1048830842        7.3908064496       25.0816552034
 Au         0.0007892113        0.0021750352       27.1723694183
 Au         0.0008432619        2.9571750230       27.1721872594
 Au         0.0008973308        5.9131750108       27.1720050389
 Au         2.9567892091        0.0021209592       27.1723110531
 Au         2.9568432597        2.9571209470       27.1721288942
 Au         2.9568973285        5.9131209348       27.1719466737
 Au         5.9127892069        0.0020668832       27.1722526880
 Au         5.9128432575        2.9570668709       27.1720705290
 Au         5.9128973263        5.9130668587       27.1718883085
 Au         8.6707892048        0.0020164293       27.1721982322
 Au         8.6708432554        2.9570164170       27.1720160733
 Au         8.6708973243        5.9130164048       27.1718338527
 Au        11.6267892026        0.0019623532       27.1721398670
 Au        11.6268432532        2.9569623410       27.1719577081
 Au        11.6268973221        5.9129623288       27.1717754875
 Au         1.4788575158        1.4802768261       29.2622491168
 Au         1.4789115664        4.4352768139       29.2620669579
 Au         1.4789656353        7.3912768017       29.2618847373
 Au         4.4348575136        1.4802227501       29.2621907516
 Au         4.4349115642        4.4352227379       29.2620085927
 Au         4.4349656331        7.3912227257       29.2618263721
 Au         7.1928575115        1.4801722962       29.2621362958
 Au         7.1929115621        4.4351722840       29.2619541369
 Au         7.1929656310        7.3911722718       29.2617719164
 Au        10.1488575093        1.4801182202       29.2620779306
 Au        10.1489115599        4.4351182079       29.2618957717
 Au        10.1489656288        7.3911181957       29.2617135512
 Au        13.1048575071        1.4800641441       29.2620195654
 Au        13.1049115577        4.4350641319       29.2618374065
 Au        13.1049656266        7.3910641197       29.2616551860
 Au         0.0008717537        0.0024327053       31.3523694009
 Au         0.0009258043        2.9574326931       31.3521872420
 Au         0.0009798731        5.9134326809       31.3520050215
 Au         2.9568717515        0.0023786293       31.3523110357
 Au         2.9569258020        2.9573786170       31.3521288768
 Au         2.9569798709        5.9133786048       31.3519466563
 Au         5.9128717492        0.0023245532       31.3522526705
 Au         5.9129257998        2.9573245410       31.3520705116
 Au         5.9129798687        5.9133245288       31.3518882911
 Au         8.6708717472        0.0022740993       31.3521982148
 Au         8.6709257978        2.9572740871       31.3520160559
 Au         8.6709798667        5.9132740749       31.3518338353
 Au        11.6268717450        0.0022200233       31.3521398496
 Au        11.6269257956        2.9572200111       31.3519576907
 Au        11.6269798644        5.9132199988       31.3517754701
 Au         1.4789400582        1.4805344962       33.4422490994
 Au         1.4789941088        4.4355344840       33.4420669405
 Au         1.4790481777        7.3915344718       33.4418847199
 Au         4.4349400560        1.4804804202       33.4421907342
 Au         4.4349941066        4.4354804079       33.4420085753
 Au         4.4350481755        7.3914803957       33.4418263547
 Au         7.1929400539        1.4804299662       33.4421362784
 Au         7.1929941045        4.4354299540       33.4419541195
 Au         7.1930481734        7.3914299418       33.4417718990
 Au        10.1489400517        1.4803758902       33.4420779132
 Au        10.1489941023        4.4353758780       33.4418957543
 Au        10.1490481712        7.3913758658       33.4417135338
 Au        13.1049400495        1.4803218142       33.4420195480
 Au        13.1049941001        4.4353218019       33.4418373891
 Au        13.1050481690        7.3913217897       33.4416551686
     183
 i =       2, E =    -5729.7613105252
 Au         0.0002516825        0.0004980699        0.0003678264
 Au         0.0003054741        2.9554980577        0.0001864776
 Au         0.0003592838        5.9114980456        0.0000050676
 Au         2.9562516803        0.0004442530        0.0003097220
 Au         2.9563054719        2.9554442408        0.0001283733
 Au         2.9563592816        5.9114442287       -0.0000530368
 Au         5.9122516781        0.0003904361        0.0002516177
 Au         5.9123054697        2.9553904239        0.0000702690
 Au         5.9123592794        5.9113904118       -0.0001111411
 Au         8.6702516761        0.0003402240        0.0001974053
 Au         8.6703054676        2.9553402118        0.0000160566
 Au         8.6703592774        5.9113401997       -0.0001653535
 Au        11.6262516739        0.0002864071        0.0001393010
 Au        11.6263054654        2.9552863949       -0.0000420478
 Au        11.6263592752        5.9112863828       -0.0002234579
 Au         1.4783196730        1.4785994174        2.0902480605
 Au         1.4783734646        4.4335994052        2.0900667118
 Au         1.4784272744        7.3895993930        2.0898853017
 Au         4.4343196708        1.4785456005        2.0901899561
 Au         4.4343734624        4.4335455883        2.0900086074
 Au         4.4344272722        7.3895455761        2.0898271973
 Au         7.1923196688        1.4784953884        2.0901357438
 Au         7.1923734603        4.4334953762        2.0899543950
 Au         7.1924272701        7.3894953640        2.0897729850
 Au        10.1483196666        1.4784415715        2.0900776394
 Au        10.1483734581        4.4334415593        2.0898962907
 Au        10.1484272679        7.3894415471        2.0897148806
 Au        13.1043196644        1.4783877546        2.0900195351
 Au        13.1043734559        4.4333877424        2.0898381864
 Au        13.1044272657        7.3893877302        2.0896567763
 Au         0.0003338560        0.0007545939        4.1803678090
 Au         0.0003876476        2.9557545817        4.1801864603
 Au         0.0004414573        5.9117545696        4.1800050502
 Au         2.9563338538        0.0007007770        4.1803097047
 Au         2.9563876453        2.9557007648        4.1801283560
 Au         2.9564414551        5.9117007527        4.1799469459
 Au         5.9123338516        0.0006469601        4.1802516004
 Au         5.9123876431        2.9556469480        4.1800702516
 Au         5.9124414529        5.9116469358        4.1798888415
 Au         8.6703338495        0.0005967480        4.1801973880
 Au         8.6703876411        2.9555967358        4.1800160393
 Au         8.6704414509        5.9115967237        4.1798346292
 Au        11.6263338473        0.0005429311        4.1801392836
 Au        11.6263876389        2.9555429190        4.1799579349
 Au        11.6264414486        5.9115429068        4.1797765248
 Au         1.4784018465        1.4788559414        6.2702480432
 Au         1.4784556381        4.4338559292        6.2700666944
 Au         1.4785094478        7.3898559171        6.2698852843
 Au         4.4344018443        1.4788021245        6.2701899388
 Au         4.4344556359        4.4338021123        6.2700085901
 Au         4.4345094456        7.3898021002        6.2698271800
 Au         7.1924018423        1.4787519124        6.2701357264
 Au         7.1924556338        4.4337519002        6.2699543777
 Au         7.1925094436        7.3897518881        6.2697729676
 Au        10.1484018400        1.4786980955        6.2700776221
 Au        10.1484556316        4.4336980833        6.2698962734
 Au        10.1485094414        7.3896980712        6.2697148633
 Au        13.1044018378        1.4786442786        6.2700195178
 Au        13.1044556294        4.4336442664        6.2698381690
 Au        13.1045094392        7.3896442543        6.2696567589
 Au         0.0004160295        0.0010111179        8.3603677917
 Au         0.0004698210        2.9560111058        8.3601864430
 Au         0.0005236308        5.9120110936        8.3600050329
 Au         2.9564160273        0.0009573010        8.3603096874
 Au         2.9564698188        2.9559572889        8.3601283387
 Au         2.9565236286        5.9119572767        8.3599469286
 Au         5.9124160251        0.0009034841        8.3602515830
 Au         5.9124698166        2.9559034720        8.3600702343
 Au         5.9125236264        5.9119034598        8.3598888242
 Au         8.6704160230        0.0008532720        8.3601973707
 Au         8.6704698146        2.9558532599        8.3600160219
 Au         8.6705236243        5.9118532477        8.3598346118
 Au        11.6264160208        0.0007994551        8.3601392663
 Au        11.6264698124        2.9557994430        8.3599579176
 Au        11.6265236221        5.9117994308        8.3597765075
 Au         1.4784840200        1.4791124654       10.4502480258
 Au         1.4785378115        4.4341124532       10.4500666771
 Au         1.4785916213        7.3901124411       10.4498852670
 Au         4.4344840178        1.4790586485       10.4501899215
 Au         4.4345378093        4.4340586363       10.4500085728
 Au         4.4345916191        7.3900586242       10.4498271627
 Au         7.1924840157        1.4790084364       10.4501357091
 Au         7.1925378073        4.4340084242       10.4499543604
 Au         7.1925916170        7.3900084121       10.4497729503
 Au        10.1484840135        1.4789546195       10.4500776048
 Au        10.1485378051        4.4339546073       10.4498962561
 Au        10.1485916148        7.3899545952       10.4497148460
 Au        13.1044840113        1.4789008026       10.4500195004
 Au        13.1045378029        4.4339007905       10.4498381517
 Au        13.1045916126        7.3899007783       10.4496567416
  N         4.8557937783        5.9125934734       12.0318106036
  N         9.5285958857        5.9144095367       12.0338176088
  N         7.1925963882        5.9351059954       12.0398622372