     183
 i =       0, E =    -5729.7310239752
 Au         0.0004645571        0.0009369867        0.0007448386
 Au         0.0005756338        2.9559369626        0.0003843867
 Au         0.0006867481        5.9119369385        0.0000238127
 Au         2.9564645527        0.0008258582        0.0006290672
 Au         2.9565756295        2.9558258341        0.0002686152
 Au         2.9566867438        5.9118258101       -0.0000919588
 Au         5.9124645484        0.0007147298        0.0005132957
 Au         5.9125756251        2.9557147057        0.0001528437
 Au         5.9126867394        5.9117146816       -0.0002077302
 Au         8.6704645443        0.0006110450        0.0004052789
 Au         8.6705756210        2.9556110209        0.0000448269
 Au         8.6706867354        5.9116109968       -0.0003157470
 Au        11.6264645399        0.0004999165        0.0002895074
 Au        11.6265756167        2.9554998924       -0.0000709446
 Au        11.6266867310        5.9114998684       -0.0004315185
 Au         1.4786019763        1.4791363463        2.0905066488
 Au         1.4787130530        4.4341363222        2.0901461968
 Au         1.4788241674        7.3901362981        2.0897856228
 Au         4.4346019719        1.4790252178        2.0903908773
 Au         4.4347130487        4.4340251938        2.0900304253
 Au         4.4348241630        7.3900251697        2.0896698514
 Au         7.1926019679        1.4789215330        2.0902828605
 Au         7.1927130446        4.4339215090        2.0899224085
 Au         7.1928241590        7.3899214849        2.0895618346
 Au        10.1486019635        1.4788104046        2.0901670890
 Au        10.1487130403        4.4338103805        2.0898066370
 Au        10.1488241546        7.3898103564        2.0894460631
 Au        13.1046019592        1.4786992761        2.0900513175
 Au        13.1047130359        4.4336992521        2.0896908656
 Au        13.1048241502        7.3896992280        2.0893302916
 Au         0.0006282856        0.0014468584        4.1807448043
 Au         0.0007393623        2.9564468344        4.1803843524
 Au         0.0008504766        5.9124468103        4.1800237784
 Au         2.9566282812        0.0013357300        4.1806290329
 Au         2.9567393579        2.9563357059        4.1802685809
 Au         2.9568504723        5.9123356818        4.1799080069
 Au         5.9126282768        0.0012246015        4.1805132614
 Au         5.9127393536        2.9562245775        4.1801528094
 Au         5.9128504679        5.9122245534        4.1797922355
 Au         8.6706282728        0.0011209167        4.1804052446
 Au         8.6707393495        2.9561208927        4.1800447926
 Au         8.6708504639        5.9121208686        4.1796842187
 Au        11.6266282684        0.0010097883        4.1802894731
 Au        11.6267393452        2.9560097642        4.1799290211
 Au        11.6268504595        5.9120097401        4.1795684472
 Au         1.4787657048        1.4796462181        6.2705066145
 Au         1.4788767815        4.4346461940        6.2701461625
 Au         1.4789878959        7.3906461699        6.2697855885
 Au         4.4347657004        1.4795350896        6.2703908430
 Au         4.4348767772        4.4345350655        6.2700303910
 Au         4.4349878915        7.3905350414        6.2696698171
 Au         7.1927656964        1.4794314048        6.2702828262
 Au         7.1928767731        4.4344313807        6.2699223742
 Au         7.1929878874        7.3904313566        6.2695618003
 Au        10.1487656920        1.4793202763        6.2701670547
 Au        10.1488767688        4.4343202523        6.2698066027
 Au        10.1489878831        7.3903202282        6.2694460288
 Au        13.1047656877        1.4792091479        6.2700512832
 Au        13.1048767644        4.4342091238        6.2696908313
 Au        13.1049878787        7.3902090997        6.2693302573
 Au         0.0007920140        0.0019567302        8.3607447700
 Au         0.0009030908        2.9569567061        8.3603843181
 Au         0.0010142051        5.9129566821        8.3600237441
 Au         2.9567920097        0.0018456017        8.3606289986
 Au         2.9569030864        2.9568455777        8.3602685466
 Au         2.9570142008        5.9128455536        8.3599079726
 Au         5.9127920053        0.0017344733        8.3605132271
 Au         5.9129030821        2.9567344492        8.3601527751
 Au         5.9130141964        5.9127344251        8.3597922012
 Au         8.6707920013        0.0016307885        8.3604052103
 Au         8.6709030780        2.9566307644        8.3600447583
 Au         8.6710141923        5.9126307403        8.3596841843
 Au        11.6267919969        0.0015196600        8.3602894388
 Au        11.6269030737        2.9565196360        8.3599289868
 Au        11.6270141880        5.9125196119        8.3595684129
 Au         1.4789294333        1.4801560898       10.4505065802
 Au         1.4790405100        4.4351560657       10.4501461282
 Au         1.4791516243        7.3911560417       10.4497855542
 Au         4.4349294289        1.4800449614       10.4503908087
 Au         4.4350405057        4.4350449373       10.4500303567
 Au         4.4351516200        7.3910449132       10.4496697828
 Au         7.1929294249        1.4799412766       10.4502827919
 Au         7.1930405016        4.4349412525       10.4499223399
 Au         7.1931516159        7.3909412284       10.4495617660
 Au        10.1489294205        1.4798301481       10.4501670204
 Au        10.1490404972        4.4348301240       10.4498065684
 Au        10.1491516116        7.3908301000       10.4494459945
 Au        13.1049294161        1.4797190197       10.4500512489
 Au        13.1050404929        4.4347189956       10.4496907970
 Au        13.1051516072        7.3907189715       10.4493302230
  N         4.8561580283        5.9132220687       12.0318335683
  N         9.5291581750        5.9150466350       12.0336503067
  N         7.1931592028        5.9361351867       12.0397392343
  H        10.3503823019        5.9251897183       12.6399169075
  H         4.0541830545        5.9185295416       12.6657643391
  C         8.3711853655        5.9366723216       12.7071930316
  C         5.9996871996        5.9358672825       12.7548860206
  N         8.3032399943        5.9672414400       14.0726919754
  N         5.9295410165        5.9671338732       14.0989849653
  H         9.1488605977        5.9266785687       14.6376638053
  C         7.0713707727        5.9988799071       14.8282363741
  N         7.1650188004        5.9332336562       16.1175407240
  H         7.2686729042        6.7222058942       16.7416404311
 Au         7.1935118458        5.9372333627       21.0427391605
 Au         5.9136354765        7.1955192099       22.9916358242
 Au         8.6715318008        4.4374155475       22.9918642293
 Au         5.9135317673        4.4365192323       22.9919723681
 Au         8.6716354724        7.1954155251       22.9915278074
 Au         1.4795025613        1.4819408850       25.0825064601
 Au         1.4796136381        4.4369408609       25.0821460081
 Au         1.4797247524        7.3929408368       25.0817854342
 Au         4.4355025570        1.4818297565       25.0823906886
 Au         4.4356136337        4.4368297324       25.0820302366
 Au         4.4357247480        7.3928297084       25.0816696627
 Au         7.1935025529        1.4817260717       25.0822826718
 Au         7.1936136296        4.4367260476       25.0819222198
 Au         7.1937247440        7.3927260236       25.0815616459
 Au        10.1495025485        1.4816149433       25.0821669003
 Au        10.1496136253        4.4366149192       25.0818064484
 Au        10.1497247396        7.3926148951       25.0814458744
 Au        13.1055025442        1.4815038148       25.0820511289
 Au        13.1056136209        4.4365037907       25.0816906769
 Au        13.1057247353        7.3925037667       25.0813301029
 Au         0.0015288706        0.0042513971       27.1727446157
 Au         0.0016399473        2.9592513730       27.1723841637
 Au         0.0017510616        5.9152513490       27.1720235897
 Au         2.9575288662        0.0041402687       27.1726288442
 Au         2.9576399430        2.9591402446       27.1722683922
 Au         2.9577510573        5.9151402205       27.1719078183
 Au         5.9135288619        0.0040291402       27.1725130727
 Au         5.9136399386        2.9590291161       27.1721526207
 Au         5.9137510529        5.9150290921       27.1717920468
 Au         8.6715288578        0.0039254554       27.1724050559
 Au         8.6716399345        2.9589254313       27.1720446039
 Au         8.6717510489        5.9149254073       27.1716840300
 Au        11.6275288534        0.0038143270       27.1722892844
 Au        11.6276399302        2.9588143029       27.1719288325
 Au        11.6277510445        5.9148142788       27.1715682585
 Au         1.4796662898        1.4824507567       29.2625064258
 Au         1.4797773665        4.4374507327       29.2621459738
 Au         1.4798884809        7.3934507086       29.2617853999
 Au         4.4356662854        1.4823396283       29.2623906543
 Au         4.4357773622        4.4373396042       29.2620302023
 Au         4.4358884765        7.3933395801       29.2616696284
 Au         7.1936662814        1.4822359435       29.2622826375
 Au         7.1937773581        4.4372359194       29.2619221855
 Au         7.1938884725        7.3932358953       29.2615616116
 Au        10.1496662770        1.4821248150       29.2621668660
 Au        10.1497773538        4.4371247909       29.2618064141
 Au        10.1498884681        7.3931247669       29.2614458401
 Au        13.1056662727        1.4820136866       29.2620510946
 Au        13.1057773494        4.4370136625       29.2616906426
 Au        13.1058884637        7.3930136384       29.2613300686
 Au         0.0016925991        0.0047612689       31.3527445814
 Au         0.0018036758        2.9597612448       31.3523841294
 Au         0.0019147901        5.9157612207       31.3520235554
 Au         2.9576925947        0.0046501404       31.3526288099
 Au         2.9578036714        2.9596501164       31.3522683579
 Au         2.9579147858        5.9156500923       31.3519077840
 Au         5.9136925903        0.0045390120       31.3525130384
 Au         5.9138036671        2.9595389879       31.3521525864
 Au         5.9139147814        5.9155389638       31.3517920125
 Au         8.6716925863        0.0044353272       31.3524050216
 Au         8.6718036630        2.9594353031       31.3520445696
 Au         8.6719147774        5.9154352790       31.3516839957
 Au        11.6276925819        0.0043241987       31.3522892501
 Au        11.6278036587        2.9593241746       31.3519287981
 Au        11.6279147730        5.9153241506       31.3515682242
 Au         1.4798300183        1.4829606285       33.4425063915
 Au         1.4799410950        4.4379606044       33.4421459395
 Au         1.4800522094        7.3939605803       33.4417853656
 Au         4.4358300139        1.4828495000       33.4423906200
 Au         4.4359410907        4.4378494760       33.4420301680
 Au         4.4360522050        7.3938494519       33.4416695941
 Au         7.1938300099        1.4827458152       33.4422826032
 Au         7.1939410866        4.4377457912       33.4419221512
 Au         7.1940522009        7.3937457671       33.4415615773
 Au        10.1498300055        1.4826346868       33.4421668317
 Au        10.1499410823        4.4376346627       33.4418063798
 Au        10.1500521966        7.3936346386       33.4414458058
 Au        13.1058300012        1.4825235583       33.4420510603
 Au        13.1059410779        4.4375235343       33.4416906083
 Au        13.1060521922        7.3935235102       33.4413300343
     183
 i =       1, E =    -5729.7328821219
 Au         0.0004641012        0.0009359369        0.0007436212
 Au         0.0005749819        2.9559359128        0.0003837128
 Au         0.0006859001        5.9119358888        0.0000236826
 Au         2.9564640968        0.0008250045        0.0006280263
 Au         2.9565749775        2.9558249805        0.0002681179
 Au         2.9566858958        5.9118249564       -0.0000919123
 Au         5.9124640925        0.0007140722        0.0005124313
 Au         5.9125749732        2.9557140481        0.0001525229
 Au         5.9126858914        5.9117140241       -0.0002075073
 Au         8.6704640884        0.0006105704        0.0004045792
 Au         8.6705749691        2.9556105463        0.0000446708
 Au         8.6706858874        5.9116105223       -0.0003153594
 Au        11.6264640841        0.0004996380        0.0002889843
 Au        11.6265749648        2.9554996140       -0.0000709242
 Au        11.6266858830        5.9114995899       -0.0004309544
 Au         1.4786012975        1.4791350101        2.0905057915
 Au         1.4787121783        4.4341349861        2.0901458831
 Au         1.4788230965        7.3901349620        2.0897858529
 Au         4.4346012932        1.4790240778        2.0903901966
 Au         4.4347121739        4.4340240537        2.0900302882
 Au         4.4348230922        7.3900240297        2.0896702580
 Au         7.1926012891        1.4789205759        2.0902823445
 Au         7.1927121698        4.4339205519        2.0899224360
 Au         7.1928230881        7.3899205279        2.0895624058
 Au        10.1486012848        1.4788096436        2.0901667495
 Au        10.1487121655        4.4338096196        2.0898068411
 Au        10.1488230837        7.3898095955        2.0894468109
 Au        13.1046012804        1.4786987112        2.0900511546
 Au        13.1047121612        4.4336986872        2.0896912461
 Au        13.1048230794        7.3896986632        2.0893312159
 Au         0.0006275800        0.0014450397        4.1807435870
 Au         0.0007384607        2.9564450157        4.1803836786
 Au         0.0008493790        5.9124449917        4.1800236484
 Au         2.9566275757        0.0013341074        4.1806279920
 Au         2.9567384564        2.9563340834        4.1802680836
 Au         2.9568493746        5.9123340593        4.1799080534
 Au         5.9126275713        0.0012231751        4.1805123971
 Au         5.9127384520        2.9562231510        4.1801524887
 Au         5.9128493703        5.9122231270        4.1797924585
 Au         8.6706275673        0.0011196732        4.1804045450
 Au         8.6707384480        2.9561196492        4.1800446365
 Au         8.6708493662        5.9121196251        4.1796846063
 Au        11.6266275629        0.0010087409        4.1802889500
 Au        11.6267384436        2.9560087168        4.1799290416
 Au        11.6268493619        5.9120086928        4.1795690114
 Au         1.4787647764        1.4796441130        6.2705057573
 Au         1.4788756571        4.4346440890        6.2701458489
 Au         1.4789865753        7.3906440649        6.2697858187
 Au         4.4347647720        1.4795331806        6.2703901623
 Au         4.4348756528        4.4345331566        6.2700302539
 Au         4.4349865710        7.3905331326        6.2696702237
 Au         7.1927647680        1.4794296788        6.2702823102
 Au         7.1928756487        4.4344296548        6.2699224018
 Au         7.1929865669        7.3904296307        6.2695623716
 Au        10.1487647636        1.4793187465        6.2701667153
 Au        10.1488756443        4.4343187224        6.2698068068
 Au        10.1489865626        7.3903186984        6.2694467766
 Au        13.1047647593        1.4792078141        6.2700511203
 Au        13.1048756400        4.4342077901        6.2696912119
 Au        13.1049865582        7.3902077660        6.2693311817
 Au         0.0007910589        0.0019541426        8.3607435527
 Au         0.0009019396        2.9569541186        8.3603836443
 Au         0.0010128578        5.9129540945        8.3600236141
 Au         2.9567910545        0.0018432103        8.3606279578
 Au         2.9569019352        2.9568431862        8.3602680494
 Au         2.9570128535        5.9128431622        8.3599080192
 Au         5.9127910502        0.0017322779        8.3605123628
 Au         5.9129019309        2.9567322539        8.3601524544
 Au         5.9130128491        5.9127322298        8.3597924242
 Au         8.6707910461        0.0016287761        8.3604045107
 Au         8.6709019268        2.9566287521        8.3600446023
 Au         8.6710128451        5.9126287280        8.3596845721
 Au        11.6267910418        0.0015178437        8.3602889158
 Au        11.6269019225        2.9565178197        8.3599290073
 Au        11.6270128407        5.9125177957        8.3595689771
 Au         1.4789282552        1.4801532159       10.4505057230
 Au         1.4790391359        4.4351531918       10.4501458146
 Au         1.4791500542        7.3911531678       10.4497857844
 Au         4.4349282509        1.4800422835       10.4503901281
 Au         4.4350391316        4.4350422595       10.4500302197
 Au         4.4351500498        7.3910422354       10.4496701895
 Au         7.1929282468        1.4799387817       10.4502822759
 Au         7.1930391275        4.4349387576       10.4499223675
 Au         7.1931500458        7.3909387336       10.4495623373
 Au        10.1489282425        1.4798278493       10.4501666810
 Au        10.1490391232        4.4348278253       10.4498067726
 Au        10.1491500414        7.3908278013       10.4494467424
 Au        13.1049282381        1.4797169170       10.4500510860
 Au        13.1050391188        4.4347168930       10.4496911776
 Au        13.1051500371        7.3907168689       10.4493311474
  N         4.8561570542        5.9132204609       12.0318334321
  N         9.5291566081        5.9150450405       12.0336507461
  N         7.1931576342        5.9361323994       12.0397395381
  H        10.3491953004        5.9250864109       12.6425025004
  H         4.0549444538        5.9184575893       12.6676420016
  C         8.3736578820        5.9364885406       12.7170553098
  C         6.0002624257        5.9358051852       12.7683840730
  N         8.3035942167        5.9667838242       14.0677829396
  N         5.9272853779        5.9665124040       14.0910222804
  H         9.1492976697        5.9263287898       14.6377550944
  C         7.0734505632        5.9978391115       14.8374951289
  N         7.1632416049        5.9350529524       16.1113556180
  H         7.2788647889        6.7198417184       16.7425068559
 Au         7.1936874761        5.9372289206       21.0427394645
 Au         5.9134865351        7.1958727574       22.9916362837
 Au         8.6717414804        4.4374108452       22.9918643457
 Au         5.9133830115        4.4365143445       22.9919723192
 Au         8.6718449665        7.1957692582       22.9915284320
 Au         1.4795005094        1.4819353195       25.0825056031
 Au         1.4796113901        4.4369352955       25.0821456947
 Au         1.4797223084        7.3929352714       25.0817856645
 Au         4.4355005051        1.4818243872       25.0823900082
 Au         4.4356113858        4.4368243631       25.0820300998
 Au         4.4357223040        7.3928243391       25.0816700696
 Au         7.1935005010        1.4817208853       25.0822821560
 Au         7.1936113817        4.4367208613       25.0819222476
 Au         7.1937223000        7.3927208372       25.0815622174
 Au        10.1495004967        1.4816099530       25.0821665611
 Au        10.1496113774        4.4366099289       25.0818066527
 Au        10.1497222956        7.3926099049       25.0814466225
 Au        13.1055004923        1.4814990206       25.0820509661
 Au        13.1056113730        4.4364989966       25.0816910577
 Au        13.1057222913        7.3924989725       25.0813310275
 Au         0.0015267919        0.0042453491       27.1727433986
 Au         0.0016376726        2.9592453251       27.1723834902
 Au         0.0017485909        5.9152453010       27.1720234600
 Au         2.9575267875        0.0041344168       27.1726278036
 Au         2.9576376683        2.9591343927       27.1722678952
 Au         2.9577485865        5.9151343687       27.1719078650
 Au         5.9135267832        0.0040234844       27.1725122087
 Au         5.9136376639        2.9590234604       27.1721523003
 Au         5.9137485822        5.9150234364       27.1717922701
 Au         8.6715267791        0.0039199826       27.1724043565
 Au         8.6716376598        2.9589199586       27.1720444481
 Au         8.6717485781        5.9149199345       27.1716844179
 Au        11.6275267748        0.0038090503       27.1722887616
 Au        11.6276376555        2.9588090262       27.1719288532
 Au        11.6277485737        5.9148090022       27.1715688230
 Au         1.4796639883        1.4824444224       29.2625055689
 Au         1.4797748690        4.4374443983       29.2621456605
 Au         1.4798857872        7.3934443743       29.2617856303
 Au         4.4356639839        1.4823334900       29.2623899739
 Au         4.4357748646        4.4373334660       29.2620300655
 Au         4.4358857829        7.3933334419       29.2616700353
 Au         7.1936639798        1.4822299882       29.2622821218
 Au         7.1937748606        4.4372299642       29.2619222134
 Au         7.1938857788        7.3932299401       29.2615621832
 Au        10.1496639755        1.4821190558       29.2621665268
 Au        10.1497748562        4.4371190318       29.2618066184
 Au        10.1498857745        7.3931190078       29.2614465882
 Au        13.1056639711        1.4820081235       29.2620509319
 Au        13.1057748519        4.4370080995       29.2616910235
 Au        13.1058857701        7.3930080754       29.2613309933
 Au         0.0016902707        0.0047544520       31.3527433643
 Au         0.0018011515        2.9597544280       31.3523834559
 Au         0.0019120697        5.9157544039       31.3520234257
 Au         2.9576902664        0.0046435197       31.3526277694
 Au         2.9578011471        2.9596434956       31.3522678610
 Au         2.9579120653        5.9156434716       31.3519078308
 Au         5.9136902620        0.0045325873       31.3525121744
 Au         5.9138011428        2.9595325633       31.3521522660
 Au         5.9139120610        5.9155325392       31.3517922358
 Au         8.6716902580        0.0044290855       31.3524043223
 Au         8.6718011387        2.9594290614       31.3520444139
 Au         8.6719120569        5.9154290374       31.3516843837
 Au        11.6276902536        0.0043181531       31.3522887273
 Au        11.6278011343        2.9593181291       31.3519288189
 Au        11.6279120526        5.9153181050       31.3515687887
 Au         1.4798274671        1.4829535252       33.4425055346
 Au         1.4799383478        4.4379535012       33.4421456262
 Au         1.4800492661        7.3939534772       33.4417855960
 Au         4.4358274628        1.4828425929       33.4423899397
 Au         4.4359383435        4.4378425689       33.4420300313
 Au         4.4360492617        7.3938425448       33.4416700011
 Au         7.1938274587        1.4827390911       33.4422820875
 Au         7.1939383394        4.4377390670       33.4419221791
 Au         7.1940492577        7.3937390430       33.4415621489
 Au        10.1498274543        1.4826281587       33.4421664926
 Au        10.1499383351        4.4376281347       33.4418065842
 Au        10.1500492533        7.3936281106       33.4414465540
 Au        13.1058274500        1.4825172264       33.4420508976
 Au        13.1059383307        4.4375172023       33.4416909892
 Au        13.1060492490        7.3935171783       33.4413309590
     183
 i =       2, E =    -5729.7331779096
 Au         0.0004650605        0.0009378102        0.0007449297
 Au         0.0005761295        2.9559377862        0.0003843665
 Au         0.0006872361        5.9119377621        0.0000236814
 Au         2.9564650561        0.0008266895        0.0006291253
 Au         2.9565761251        2.9558266654        0.0002685622
 Au         2.9566872317        5.9118266413       -0.0000921229
 Au         5.9124650517        0.0007155688        0.0005133210
 Au         5.9125761208        2.9557155447        0.0001527579
 Au         5.9126872274        5.9117155206       -0.0002079272
 Au         8.6704650477        0.0006118912        0.0004052735
 Au         8.6705761167        2.9556118671        0.0000447104
 Au         8.6706872233        5.9116118430       -0.0003159747
 Au        11.6264650433        0.0005007705        0.0002894692
 Au        11.6265761123        2.9555007464       -0.0000710939
 Au        11.6266872189        5.9115007223       -0.0004317790
 Au         1.4786024991        1.4791372523        2.0905066678
 Au         1.4787135681        4.4341372282        2.0901461047
 Au         1.4788246747        7.3901372041        2.0897854195
 Au         4.4346024947        1.4790261316        2.0903908635
 Au         4.4347135637        4.4340261075        2.0900303003
 Au         4.4348246703        7.3900260834        2.0896696152
 Au         7.1926024906        1.4789224540        2.0902828160
 Au         7.1927135596        4.4339224299        2.0899222529
 Au         7.1928246663        7.3899224058        2.0895615677
 Au        10.1486024863        1.4788113333        2.0901670117
 Au        10.1487135553        4.4338113092        2.0898064486
 Au        10.1488246619        7.3898112851        2.0894457634
 Au        13.1046024819        1.4787002125        2.0900512073
 Au        13.1047135509        4.4337001885        2.0896906442
 Au        13.1048246575        7.3897001644        2.0893299591
 Au         0.0006288354        0.0014478392        4.1807448953
 Au         0.0007399044        2.9564478151        4.1803843322
 Au         0.0008510110        5.9124477910        4.1800236471
 Au         2.9566288310        0.0013367185        4.1806290910
 Au         2.9567399001        2.9563366944        4.1802685279
 Au         2.9568510067        5.9123366703        4.1799078428
 Au         5.9126288267        0.0012255978        4.1805132867
 Au         5.9127398957        2.9562255737        4.1801527236
 Au         5.9128510023        5.9122255496        4.1797920385
 Au         8.6706288226        0.0011219202        4.1804052392
 Au         8.6707398916        2.9561218961        4.1800446761
 Au         8.6708509982        5.9121218720        4.1796839910
 Au        11.6266288183        0.0010107994        4.1802894349
 Au        11.6267398873        2.9560107753        4.1799288718
 Au        11.6268509939        5.9120107513        4.1795681867
 Au         1.4787662740        1.4796472813        6.2705066335
 Au         1.4788773430        4.4346472572        6.2701460703
 Au         1.4789884496        7.3906472331        6.2697853852
 Au         4.4347662696        1.4795361606        6.2703908291
 Au         4.4348773387        4.4345361365        6.2700302660
 Au         4.4349884453        7.3905361124        6.2696695809
 Au         7.1927662656        1.4794324830        6.2702827817
 Au         7.1928773346        4.4344324589        6.2699222186
 Au         7.1929884412        7.3904324348        6.2695615334
 Au        10.1487662612        1.4793213622        6.2701669774
 Au        10.1488773302        4.4343213382        6.2698064142
 Au        10.1489884368        7.3903213141        6.2694457291
 Au        13.1047662569        1.4792102415        6.2700511730
 Au        13.1048773259        4.4342102174        6.2696906099
 Au        13.1049884325        7.3902101933        6.2693299248
 Au         0.0007926103        0.0019578682        8.3607448610
 Au         0.0009036794        2.9569578441        8.3603842979
 Au         0.0010147860        5.9129578200        8.3600236128
 Au         2.9567926060        0.0018467475        8.3606290567
 Au         2.9569036750        2.9568467234        8.3602684936
 Au         2.9570147816        5.9128466993        8.3599078085
 Au         5.9127926016        0.0017356267        8.3605132524
 Au         5.9129036706        2.9567356026        8.3601526893
 Au         5.9130147773        5.9127355786        8.3597920041
 Au         8.6707925976        0.0016319491        8.3604052049
 Au         8.6709036666        2.9566319251        8.3600446418
 Au         8.6710147732        5.9126319010        8.3596839567
 Au        11.6267925932        0.0015208284        8.3602894006
 Au        11.6269036622        2.9565208043        8.3599288375
 Au        11.6270147688        5.9125207802        8.3595681524
 Au         1.4789300489        1.4801573103       10.4505065991
 Au         1.4790411180        4.4351572862       10.4501460360
 Au         1.4791522246        7.3911572621       10.4497853509
 Au         4.4349300446        1.4800461895       10.4503907948
 Au         4.4350411136        4.4350461655       10.4500302317
 Au         4.4351522202        7.3910461414       10.4496695466
 Au         7.1929300405        1.4799425119       10.4502827474
 Au         7.1930411095        4.4349424879       10.4499221842
 Au         7.1931522161        7.3909424638       10.4495614991
 Au        10.1489300362        1.4798313912       10.4501669430
 Au        10.1490411052        4.4348313671       10.4498063799
 Au        10.1491522118        7.3908313430       10.4494456948
 Au        13.1049300318        1.4797202705       10.4500511387
 Au        13.1050411008        4.4347202464       10.4496905756
 Au        13.1051522074        7.3907202223       10.4493298905
  N         4.8561585108        5.9132230444       12.0318334526
  N         9.5291587966        5.9150476925       12.0336500695
  N         7.1931598245        5.9361364819       12.0397390222