 # Version information for this restart file 
 # current date 2024-01-10 20:15:14.751
 # current working dir /gpfs/home/cahart/transport/melamine/au_from-h2/ci-neb/ts2/dft_leads-sz_tip-dzvp_surf-dzvp_kpoints-2-4-20_replicas-7
 # Program compiled at                              Thu 21 Sep 19:20:17 BST 2023
 # Program compiled on                                           hx1-c12-login-1
 # Program compiled for                                                    local
 # Source code revision number                                       git:5518aa6
 &GLOBAL
   EXTENDED_FFT_LENGTHS  T
   PRINT_LEVEL  MEDIUM
   PROJECT_NAME 2_dft_wfn-r-0
   OUTPUT_FILE_NAME 2_dft_wfn-r-0.out
   RUN_TYPE  BAND
 &END GLOBAL
 &MOTION
   &CONSTRAINT
     &FIXED_ATOMS
       LIST  1..93 104..183
     &END FIXED_ATOMS
   &END CONSTRAINT
   &BAND
     NPROC_REP  64
     BAND_TYPE  CI-NEB
     NUMBER_OF_REPLICA  7
     K_SPRING     5.0000000000000003E-02
     &CI_NEB
       NSTEPS_IT  5
     &END CI_NEB
     &OPTIMIZE_BAND
       OPT_TYPE  DIIS
       &DIIS
         MAX_STEPS  1000
       &END DIIS
     &END OPTIMIZE_BAND
     &REPLICA
       &COORD
             0.0000000000000000E+00    0.0000000000000000E+00    0.0000000000000000E+00
             0.0000000000000000E+00    2.9550000000000001E+00    0.0000000000000000E+00
             0.0000000000000000E+00    5.9109999999999996E+00    0.0000000000000000E+00
             2.9560000000000004E+00    0.0000000000000000E+00    0.0000000000000000E+00
             2.9560000000000004E+00    2.9550000000000001E+00    0.0000000000000000E+00
             2.9560000000000004E+00    5.9109999999999996E+00    0.0000000000000000E+00
             5.9120000000000008E+00    0.0000000000000000E+00    0.0000000000000000E+00
             5.9120000000000008E+00    2.9550000000000001E+00    0.0000000000000000E+00
             5.9120000000000008E+00    5.9109999999999996E+00    0.0000000000000000E+00
             8.6699999999999999E+00    0.0000000000000000E+00    0.0000000000000000E+00
             8.6699999999999999E+00    2.9550000000000001E+00    0.0000000000000000E+00
             8.6699999999999999E+00    5.9109999999999996E+00    0.0000000000000000E+00
             1.1626000000000001E+01    0.0000000000000000E+00    0.0000000000000000E+00
             1.1626000000000001E+01    2.9550000000000001E+00    0.0000000000000000E+00
             1.1626000000000001E+01    5.9109999999999996E+00    0.0000000000000000E+00
             1.4780000000000002E+00    1.4780000000000002E+00    2.0899999999999999E+00
             1.4780000000000002E+00    4.4330000000000007E+00    2.0899999999999999E+00
             1.4780000000000002E+00    7.3890000000000011E+00    2.0899999999999999E+00
             4.4340000000000002E+00    1.4780000000000002E+00    2.0899999999999999E+00
             4.4340000000000002E+00    4.4330000000000007E+00    2.0899999999999999E+00
             4.4340000000000002E+00    7.3890000000000011E+00    2.0899999999999999E+00
             7.1920000000000002E+00    1.4780000000000002E+00    2.0899999999999999E+00
             7.1920000000000002E+00    4.4330000000000007E+00    2.0899999999999999E+00
             7.1920000000000002E+00    7.3890000000000011E+00    2.0899999999999999E+00
             1.0148000000000000E+01    1.4780000000000002E+00    2.0899999999999999E+00
             1.0148000000000000E+01    4.4330000000000007E+00    2.0899999999999999E+00
             1.0148000000000000E+01    7.3890000000000011E+00    2.0899999999999999E+00
             1.3103999999999999E+01    1.4780000000000002E+00    2.0899999999999999E+00
             1.3103999999999999E+01    4.4330000000000007E+00    2.0899999999999999E+00
             1.3103999999999999E+01    7.3890000000000011E+00    2.0899999999999999E+00
             0.0000000000000000E+00    0.0000000000000000E+00    4.1799999999999997E+00
             0.0000000000000000E+00    2.9550000000000001E+00    4.1799999999999997E+00
             0.0000000000000000E+00    5.9109999999999996E+00    4.1799999999999997E+00
             2.9560000000000004E+00    0.0000000000000000E+00    4.1799999999999997E+00
             2.9560000000000004E+00    2.9550000000000001E+00    4.1799999999999997E+00
             2.9560000000000004E+00    5.9109999999999996E+00    4.1799999999999997E+00
             5.9120000000000008E+00    0.0000000000000000E+00    4.1799999999999997E+00
             5.9120000000000008E+00    2.9550000000000001E+00    4.1799999999999997E+00
             5.9120000000000008E+00    5.9109999999999996E+00    4.1799999999999997E+00
             8.6699999999999999E+00    0.0000000000000000E+00    4.1799999999999997E+00
             8.6699999999999999E+00    2.9550000000000001E+00    4.1799999999999997E+00
             8.6699999999999999E+00    5.9109999999999996E+00    4.1799999999999997E+00
             1.1626000000000001E+01    0.0000000000000000E+00    4.1799999999999997E+00
             1.1626000000000001E+01    2.9550000000000001E+00    4.1799999999999997E+00
             1.1626000000000001E+01    5.9109999999999996E+00    4.1799999999999997E+00
             1.4780000000000002E+00    1.4780000000000002E+00    6.2699999999999996E+00
             1.4780000000000002E+00    4.4330000000000007E+00    6.2699999999999996E+00
             1.4780000000000002E+00    7.3890000000000011E+00    6.2699999999999996E+00
             4.4340000000000002E+00    1.4780000000000002E+00    6.2699999999999996E+00
             4.4340000000000002E+00    4.4330000000000007E+00    6.2699999999999996E+00
             4.4340000000000002E+00    7.3890000000000011E+00    6.2699999999999996E+00
             7.1920000000000002E+00    1.4780000000000002E+00    6.2699999999999996E+00
             7.1920000000000002E+00    4.4330000000000007E+00    6.2699999999999996E+00
             7.1920000000000002E+00    7.3890000000000011E+00    6.2699999999999996E+00
             1.0148000000000000E+01    1.4780000000000002E+00    6.2699999999999996E+00
             1.0148000000000000E+01    4.4330000000000007E+00    6.2699999999999996E+00
             1.0148000000000000E+01    7.3890000000000011E+00    6.2699999999999996E+00
             1.3103999999999999E+01    1.4780000000000002E+00    6.2699999999999996E+00
             1.3103999999999999E+01    4.4330000000000007E+00    6.2699999999999996E+00
             1.3103999999999999E+01    7.3890000000000011E+00    6.2699999999999996E+00
             0.0000000000000000E+00    0.0000000000000000E+00    8.3599999999999994E+00
             0.0000000000000000E+00    2.9550000000000001E+00    8.3599999999999994E+00
             0.0000000000000000E+00    5.9109999999999996E+00    8.3599999999999994E+00
             2.9560000000000004E+00    0.0000000000000000E+00    8.3599999999999994E+00
             2.9560000000000004E+00    2.9550000000000001E+00    8.3599999999999994E+00
             2.9560000000000004E+00    5.9109999999999996E+00    8.3599999999999994E+00
             5.9120000000000008E+00    0.0000000000000000E+00    8.3599999999999994E+00
             5.9120000000000008E+00    2.9550000000000001E+00    8.3599999999999994E+00
             5.9120000000000008E+00    5.9109999999999996E+00    8.3599999999999994E+00
             8.6699999999999999E+00    0.0000000000000000E+00    8.3599999999999994E+00
             8.6699999999999999E+00    2.9550000000000001E+00    8.3599999999999994E+00
             8.6699999999999999E+00    5.9109999999999996E+00    8.3599999999999994E+00
             1.1626000000000001E+01    0.0000000000000000E+00    8.3599999999999994E+00
             1.1626000000000001E+01    2.9550000000000001E+00    8.3599999999999994E+00
             1.1626000000000001E+01    5.9109999999999996E+00    8.3599999999999994E+00
             1.4780000000000002E+00    1.4780000000000002E+00    1.0449999999999999E+01
             1.4780000000000002E+00    4.4330000000000007E+00    1.0449999999999999E+01
             1.4780000000000002E+00    7.3890000000000011E+00    1.0449999999999999E+01
             4.4340000000000002E+00    1.4780000000000002E+00    1.0449999999999999E+01
             4.4340000000000002E+00    4.4330000000000007E+00    1.0449999999999999E+01
             4.4340000000000002E+00    7.3890000000000011E+00    1.0449999999999999E+01
             7.1920000000000002E+00    1.4780000000000002E+00    1.0449999999999999E+01
             7.1920000000000002E+00    4.4330000000000007E+00    1.0449999999999999E+01
             7.1920000000000002E+00    7.3890000000000011E+00    1.0449999999999999E+01
             1.0148000000000000E+01    1.4780000000000002E+00    1.0449999999999999E+01
             1.0148000000000000E+01    4.4330000000000007E+00    1.0449999999999999E+01
             1.0148000000000000E+01    7.3890000000000011E+00    1.0449999999999999E+01
             1.3103999999999999E+01    1.4780000000000002E+00    1.0449999999999999E+01
             1.3103999999999999E+01    4.4330000000000007E+00    1.0449999999999999E+01
             1.3103999999999999E+01    7.3890000000000011E+00    1.0449999999999999E+01
             4.8554000000000013E+00    5.9119000000000002E+00    1.2031800000000000E+01
             9.5280000000000005E+00    5.9137000000000004E+00    1.2034000000000001E+01
             7.1920000000000002E+00    5.9340000000000002E+00    1.2039999999999999E+01
             1.0318905404800002E+01    5.9087793826000006E+00    1.2685747073200000E+01
             4.0673339928000001E+00    5.9059993220000004E+00    1.2687741368900001E+01
             8.3738707293000001E+00    5.9179777707000003E+00    1.2731457252200002E+01
             5.9989554221999999E+00    5.9152564166000010E+00    1.2792642411200001E+01
             8.3227525761999992E+00    5.9051536095000001E+00    1.4080497642100001E+01
             5.9344285048999996E+00    5.8981604865000001E+00    1.4101749969600000E+01
             9.1743570613000003E+00    5.8876302392000008E+00    1.4641017735300000E+01
             7.1039653576999999E+00    5.8899410688999998E+00    1.4828703219099999E+01
             7.2416021047000001E+00    5.8657702091999999E+00    1.6106466757300002E+01
             6.3118250323000007E+00    5.8547577071000010E+00    1.6539601306200002E+01
             7.3120000000000003E+00    5.9340000000000002E+00    2.1042999999999999E+01
             5.8130000000000006E+00    7.4340000000000002E+00    2.2992000000000004E+01
             8.8130000000000006E+00    4.4340000000000002E+00    2.2992000000000004E+01
             5.8130000000000006E+00    4.4330000000000007E+00    2.2992000000000004E+01
             8.8130000000000006E+00    7.4340000000000002E+00    2.2992000000000004E+01
             1.4780000000000002E+00    1.4780000000000002E+00    2.5082000000000004E+01
             1.4780000000000002E+00    4.4330000000000007E+00    2.5082000000000004E+01
             1.4780000000000002E+00    7.3890000000000011E+00    2.5082000000000004E+01
             4.4340000000000002E+00    1.4780000000000002E+00    2.5082000000000004E+01
             4.4340000000000002E+00    4.4330000000000007E+00    2.5082000000000004E+01
             4.4340000000000002E+00    7.3890000000000011E+00    2.5082000000000004E+01
             7.1920000000000002E+00    1.4780000000000002E+00    2.5082000000000004E+01
             7.1920000000000002E+00    4.4330000000000007E+00    2.5082000000000004E+01
             7.1920000000000002E+00    7.3890000000000011E+00    2.5082000000000004E+01
             1.0148000000000000E+01    1.4780000000000002E+00    2.5082000000000004E+01
             1.0148000000000000E+01    4.4330000000000007E+00    2.5082000000000004E+01
             1.0148000000000000E+01    7.3890000000000011E+00    2.5082000000000004E+01
             1.3103999999999999E+01    1.4780000000000002E+00    2.5082000000000004E+01
             1.3103999999999999E+01    4.4330000000000007E+00    2.5082000000000004E+01
             1.3103999999999999E+01    7.3890000000000011E+00    2.5082000000000004E+01
             0.0000000000000000E+00    0.0000000000000000E+00    2.7172000000000004E+01
             0.0000000000000000E+00    2.9550000000000001E+00    2.7172000000000004E+01
             0.0000000000000000E+00    5.9109999999999996E+00    2.7172000000000004E+01
             2.9560000000000004E+00    0.0000000000000000E+00    2.7172000000000004E+01
             2.9560000000000004E+00    2.9550000000000001E+00    2.7172000000000004E+01
             2.9560000000000004E+00    5.9109999999999996E+00    2.7172000000000004E+01
             5.9120000000000008E+00    0.0000000000000000E+00    2.7172000000000004E+01
             5.9120000000000008E+00    2.9550000000000001E+00    2.7172000000000004E+01
             5.9120000000000008E+00    5.9109999999999996E+00    2.7172000000000004E+01
             8.6699999999999999E+00    0.0000000000000000E+00    2.7172000000000004E+01
             8.6699999999999999E+00    2.9550000000000001E+00    2.7172000000000004E+01
             8.6699999999999999E+00    5.9109999999999996E+00    2.7172000000000004E+01
             1.1626000000000001E+01    0.0000000000000000E+00    2.7172000000000004E+01
             1.1626000000000001E+01    2.9550000000000001E+00    2.7172000000000004E+01
             1.1626000000000001E+01    5.9109999999999996E+00    2.7172000000000004E+01
             1.4780000000000002E+00    1.4780000000000002E+00    2.9262000000000004E+01
             1.4780000000000002E+00    4.4330000000000007E+00    2.9262000000000004E+01
             1.4780000000000002E+00    7.3890000000000011E+00    2.9262000000000004E+01
             4.4340000000000002E+00    1.4780000000000002E+00    2.9262000000000004E+01
             4.4340000000000002E+00    4.4330000000000007E+00    2.9262000000000004E+01
             4.4340000000000002E+00    7.3890000000000011E+00    2.9262000000000004E+01
             7.1920000000000002E+00    1.4780000000000002E+00    2.9262000000000004E+01
             7.1920000000000002E+00    4.4330000000000007E+00    2.9262000000000004E+01
             7.1920000000000002E+00    7.3890000000000011E+00    2.9262000000000004E+01
             1.0148000000000000E+01    1.4780000000000002E+00    2.9262000000000004E+01
             1.0148000000000000E+01    4.4330000000000007E+00    2.9262000000000004E+01
             1.0148000000000000E+01    7.3890000000000011E+00    2.9262000000000004E+01
             1.3103999999999999E+01    1.4780000000000002E+00    2.9262000000000004E+01
             1.3103999999999999E+01    4.4330000000000007E+00    2.9262000000000004E+01
             1.3103999999999999E+01    7.3890000000000011E+00    2.9262000000000004E+01
             0.0000000000000000E+00    0.0000000000000000E+00    3.1352000000000004E+01
             0.0000000000000000E+00    2.9550000000000001E+00    3.1352000000000004E+01
             0.0000000000000000E+00    5.9109999999999996E+00    3.1352000000000004E+01
             2.9560000000000004E+00    0.0000000000000000E+00    3.1352000000000004E+01
             2.9560000000000004E+00    2.9550000000000001E+00    3.1352000000000004E+01
             2.9560000000000004E+00    5.9109999999999996E+00    3.1352000000000004E+01
             5.9120000000000008E+00    0.0000000000000000E+00    3.1352000000000004E+01
             5.9120000000000008E+00    2.9550000000000001E+00    3.1352000000000004E+01
             5.9120000000000008E+00    5.9109999999999996E+00    3.1352000000000004E+01
             8.6699999999999999E+00    0.0000000000000000E+00    3.1352000000000004E+01
             8.6699999999999999E+00    2.9550000000000001E+00    3.1352000000000004E+01
             8.6699999999999999E+00    5.9109999999999996E+00    3.1352000000000004E+01
             1.1626000000000001E+01    0.0000000000000000E+00    3.1352000000000004E+01
             1.1626000000000001E+01    2.9550000000000001E+00    3.1352000000000004E+01
             1.1626000000000001E+01    5.9109999999999996E+00    3.1352000000000004E+01
             1.4780000000000002E+00    1.4780000000000002E+00    3.3442000000000000E+01
             1.4780000000000002E+00    4.4330000000000007E+00    3.3442000000000000E+01
             1.4780000000000002E+00    7.3890000000000011E+00    3.3442000000000000E+01
             4.4340000000000002E+00    1.4780000000000002E+00    3.3442000000000000E+01
             4.4340000000000002E+00    4.4330000000000007E+00    3.3442000000000000E+01
             4.4340000000000002E+00    7.3890000000000011E+00    3.3442000000000000E+01
             7.1920000000000002E+00    1.4780000000000002E+00    3.3442000000000000E+01
             7.1920000000000002E+00    4.4330000000000007E+00    3.3442000000000000E+01
             7.1920000000000002E+00    7.3890000000000011E+00    3.3442000000000000E+01
             1.0148000000000000E+01    1.4780000000000002E+00    3.3442000000000000E+01
             1.0148000000000000E+01    4.4330000000000007E+00    3.3442000000000000E+01
             1.0148000000000000E+01    7.3890000000000011E+00    3.3442000000000000E+01
             1.3103999999999999E+01    1.4780000000000002E+00    3.3442000000000000E+01
             1.3103999999999999E+01    4.4330000000000007E+00    3.3442000000000000E+01
             1.3103999999999999E+01    7.3890000000000011E+00    3.3442000000000000E+01
       &END COORD
       &VELOCITY
             0.0000000000000000E+00    0.0000000000000000E+00    0.0000000000000000E+00
             0.0000000000000000E+00    0.0000000000000000E+00    0.0000000000000000E+00
             0.0000000000000000E+00    0.0000000000000000E+00    0.0000000000000000E+00
             0.0000000000000000E+00    0.0000000000000000E+00    0.0000000000000000E+00
             0.0000000000000000E+00    0.0000000000000000E+00    0.0000000000000000E+00
             0.0000000000000000E+00    0.0000000000000000E+00    0.0000000000000000E+00
             0.0000000000000000E+00    0.0000000000000000E+00    0.0000000000000000E+00
             0.0000000000000000E+00    0.0000000000000000E+00    0.0000000000000000E+00
             0.0000000000000000E+00    0.0000000000000000E+00    0.0000000000000000E+00
             0.0000000000000000E+00    0.0000000000000000E+00    0.0000000000000000E+00
             0.0000000000000000E+00    0.0000000000000000E+00    0.0000000000000000E+00
             0.0000000000000000E+00    0.0000000000000000E+00    0.0000000000000000E+00
             0.0000000000000000E+00    0.0000000000000000E+00    0.0000000000000000E+00
             0.0000000000000000E+00    0.0000000000000000E+00    0.0000000000000000E+00
             0.0000000000000000E+00    0.0000000000000000E+00    0.0000000000000000E+00
             0.0000000000000000E+00    0.0000000000000000E+00    0.0000000000000000E+00
             0.0000000000000000E+00    0.0000000000000000E+00    0.0000000000000000E+00
             0.0000000000000000E+00    0.0000000000000000E+00    0.0000000000000000E+00
             0.0000000000000000E+00    0.0000000000000000E+00    0.0000000000000000E+00
             0.0000000000000000E+00    0.0000000000000000E+00    0.0000000000000000E+00
             0.0000000000000000E+00    0.0000000000000000E+00    0.0000000000000000E+00
             0.0000000000000000E+00    0.0000000000000000E+00    0.0000000000000000E+00
             0.0000000000000000E+00    0.0000000000000000E+00    0.0000000000000000E+00
             0.0000000000000000E+00    0.0000000000000000E+00    0.0000000000000000E+00
             0.0000000000000000E+00    0.0000000000000000E+00    0.0000000000000000E+00
             0.0000000000000000E+00    0.0000000000000000E+00    0.0000000000000000E+00
             0.0000000000000000E+00    0.0000000000000000E+00    0.0000000000000000E+00
             0.0000000000000000E+00    0.0000000000000000E+00    0.0000000000000000E+00
             0.0000000000000000E+00    0.0000000000000000E+00    0.0000000000000000E+00
             0.0000000000000000E+00    0.0000000000000000E+00    0.0000000000000000E+00
             0.0000000000000000E+00    0.0000000000000000E+00    0.0000000000000000E+00
             0.0000000000000000E+00    0.0000000000000000E+00    0.0000000000000000E+00
             0.0000000000000000E+00    0.0000000000000000E+00    0.0000000000000000E+00
             0.0000000000000000E+00    0.0000000000000000E+00    0.0000000000000000E+00
             0.0000000000000000E+00    0.0000000000000000E+00    0.0000000000000000E+00
             0.0000000000000000E+00    0.0000000000000000E+00    0.0000000000000000E+00
             0.0000000000000000E+00    0.0000000000000000E+00    0.0000000000000000E+00
             0.0000000000000000E+00    0.0000000000000000E+00    0.0000000000000000E+00
             0.0000000000000000E+00    0.0000000000000000E+00    0.0000000000000000E+00
             0.0000000000000000E+00    0.0000000000000000E+00    0.0000000000000000E+00
             0.0000000000000000E+00    0.0000000000000000E+00    0.0000000000000000E+00
             0.0000000000000000E+00    0.0000000000000000E+00    0.0000000000000000E+00
             0.0000000000000000E+00    0.0000000000000000E+00    0.0000000000000000E+00
             0.0000000000000000E+00    0.0000000000000000E+00    0.0000000000000000E+00
             0.0000000000000000E+00    0.0000000000000000E+00    0.0000000000000000E+00
             0.0000000000000000E+00    0.0000000000000000E+00    0.0000000000000000E+00
             0.0000000000000000E+00    0.0000000000000000E+00    0.0000000000000000E+00
             0.0000000000000000E+00    0.0000000000000000E+00    0.0000000000000000E+00
             0.0000000000000000E+00    0.0000000000000000E+00    0.0000000000000000E+00
             0.0000000000000000E+00    0.0000000000000000E+00    0.0000000000000000E+00
             0.0000000000000000E+00    0.0000000000000000E+00    0.0000000000000000E+00
             0.0000000000000000E+00    0.0000000000000000E+00    0.0000000000000000E+00
             0.0000000000000000E+00    0.0000000000000000E+00    0.0000000000000000E+00
             0.0000000000000000E+00    0.0000000000000000E+00    0.0000000000000000E+00
             0.0000000000000000E+00    0.0000000000000000E+00    0.0000000000000000E+00
             0.0000000000000000E+00    0.0000000000000000E+00    0.0000000000000000E+00
             0.0000000000000000E+00    0.0000000000000000E+00    0.0000000000000000E+00
             0.0000000000000000E+00    0.0000000000000000E+00    0.0000000000000000E+00
             0.0000000000000000E+00    0.0000000000000000E+00    0.0000000000000000E+00
             0.0000000000000000E+00    0.0000000000000000E+00    0.0000000000000000E+00
             0.0000000000000000E+00    0.0000000000000000E+00    0.0000000000000000E+00
             0.0000000000000000E+00    0.0000000000000000E+00    0.0000000000000000E+00
             0.0000000000000000E+00    0.0000000000000000E+00    0.0000000000000000E+00
             0.0000000000000000E+00    0.0000000000000000E+00    0.0000000000000000E+00
             0.0000000000000000E+00    0.0000000000000000E+00    0.0000000000000000E+00
             0.0000000000000000E+00    0.0000000000000000E+00    0.0000000000000000E+00
             0.0000000000000000E+00    0.0000000000000000E+00    0.0000000000000000E+00
             0.0000000000000000E+00    0.0000000000000000E+00    0.0000000000000000E+00
             0.0000000000000000E+00    0.0000000000000000E+00    0.0000000000000000E+00
             0.0000000000000000E+00    0.0000000000000000E+00    0.0000000000000000E+00
             0.0000000000000000E+00    0.0000000000000000E+00    0.0000000000000000E+00
             0.0000000000000000E+00    0.0000000000000000E+00    0.0000000000000000E+00
             0.0000000000000000E+00    0.0000000000000000E+00    0.0000000000000000E+00
             0.0000000000000000E+00    0.0000000000000000E+00    0.0000000000000000E+00
             0.0000000000000000E+00    0.0000000000000000E+00    0.0000000000000000E+00
             0.0000000000000000E+00    0.0000000000000000E+00    0.0000000000000000E+00
             0.0000000000000000E+00    0.0000000000000000E+00    0.0000000000000000E+00
             0.0000000000000000E+00    0.0000000000000000E+00    0.0000000000000000E+00
             0.0000000000000000E+00    0.0000000000000000E+00    0.0000000000000000E+00
             0.0000000000000000E+00    0.0000000000000000E+00    0.0000000000000000E+00
             0.0000000000000000E+00    0.0000000000000000E+00    0.0000000000000000E+00
             0.0000000000000000E+00    0.0000000000000000E+00    0.0000000000000000E+00
             0.0000000000000000E+00    0.0000000000000000E+00    0.0000000000000000E+00
             0.0000000000000000E+00    0.0000000000000000E+00    0.0000000000000000E+00
             0.0000000000000000E+00    0.0000000000000000E+00    0.0000000000000000E+00
             0.0000000000000000E+00    0.0000000000000000E+00    0.0000000000000000E+00
             0.0000000000000000E+00    0.0000000000000000E+00    0.0000000000000000E+00
             0.0000000000000000E+00    0.0000000000000000E+00    0.0000000000000000E+00
             0.0000000000000000E+00    0.0000000000000000E+00    0.0000000000000000E+00
             0.0000000000000000E+00    0.0000000000000000E+00    0.0000000000000000E+00
             0.0000000000000000E+00    0.0000000000000000E+00    0.0000000000000000E+00
             0.0000000000000000E+00    0.0000000000000000E+00    0.0000000000000000E+00
             0.0000000000000000E+00    0.0000000000000000E+00    0.0000000000000000E+00
             0.0000000000000000E+00    0.0000000000000000E+00    0.0000000000000000E+00
             0.0000000000000000E+00    0.0000000000000000E+00    0.0000000000000000E+00
             0.0000000000000000E+00    0.0000000000000000E+00    0.0000000000000000E+00
             0.0000000000000000E+00    0.0000000000000000E+00    0.0000000000000000E+00
             0.0000000000000000E+00    0.0000000000000000E+00    0.0000000000000000E+00
             0.0000000000000000E+00    0.0000000000000000E+00    0.0000000000000000E+00
             0.0000000000000000E+00    0.0000000000000000E+00    0.0000000000000000E+00
             0.0000000000000000E+00    0.0000000000000000E+00    0.0000000000000000E+00
             0.0000000000000000E+00    0.0000000000000000E+00    0.0000000000000000E+00
             0.0000000000000000E+00    0.0000000000000000E+00    0.0000000000000000E+00
             0.0000000000000000E+00    0.0000000000000000E+00    0.0000000000000000E+00
             0.0000000000000000E+00    0.0000000000000000E+00    0.0000000000000000E+00
             0.0000000000000000E+00    0.0000000000000000E+00    0.0000000000000000E+00
             0.0000000000000000E+00    0.0000000000000000E+00    0.0000000000000000E+00
             0.0000000000000000E+00    0.0000000000000000E+00    0.0000000000000000E+00
             0.0000000000000000E+00    0.0000000000000000E+00    0.0000000000000000E+00
             0.0000000000000000E+00    0.0000000000000000E+00    0.0000000000000000E+00
             0.0000000000000000E+00    0.0000000000000000E+00    0.0000000000000000E+00
             0.0000000000000000E+00    0.0000000000000000E+00    0.0000000000000000E+00
             0.0000000000000000E+00    0.0000000000000000E+00    0.0000000000000000E+00
             0.0000000000000000E+00    0.0000000000000000E+00    0.0000000000000000E+00
             0.0000000000000000E+00    0.0000000000000000E+00    0.0000000000000000E+00
             0.0000000000000000E+00    0.0000000000000000E+00    0.0000000000000000E+00
             0.0000000000000000E+00    0.0000000000000000E+00    0.0000000000000000E+00
             0.0000000000000000E+00    0.0000000000000000E+00    0.0000000000000000E+00
             0.0000000000000000E+00    0.0000000000000000E+00    0.0000000000000000E+00
             0.0000000000000000E+00    0.0000000000000000E+00    0.0000000000000000E+00
             0.0000000000000000E+00    0.0000000000000000E+00    0.0000000000000000E+00
             0.0000000000000000E+00    0.0000000000000000E+00    0.0000000000000000E+00
             0.0000000000000000E+00    0.0000000000000000E+00    0.0000000000000000E+00
             0.0000000000000000E+00    0.0000000000000000E+00    0.0000000000000000E+00
             0.0000000000000000E+00    0.0000000000000000E+00    0.0000000000000000E+00
             0.0000000000000000E+00    0.0000000000000000E+00    0.0000000000000000E+00
             0.0000000000000000E+00    0.0000000000000000E+00    0.0000000000000000E+00
             0.0000000000000000E+00    0.0000000000000000E+00    0.0000000000000000E+00
             0.0000000000000000E+00    0.0000000000000000E+00    0.0000000000000000E+00
             0.0000000000000000E+00    0.0000000000000000E+00    0.0000000000000000E+00
             0.0000000000000000E+00    0.0000000000000000E+00    0.0000000000000000E+00
             0.0000000000000000E+00    0.0000000000000000E+00    0.0000000000000000E+00
             0.0000000000000000E+00    0.0000000000000000E+00    0.0000000000000000E+00
             0.0000000000000000E+00    0.0000000000000000E+00    0.0000000000000000E+00
             0.0000000000000000E+00    0.0000000000000000E+00    0.0000000000000000E+00
             0.0000000000000000E+00    0.0000000000000000E+00    0.0000000000000000E+00
             0.0000000000000000E+00    0.0000000000000000E+00    0.0000000000000000E+00
             0.0000000000000000E+00    0.0000000000000000E+00    0.0000000000000000E+00
             0.0000000000000000E+00    0.0000000000000000E+00    0.0000000000000000E+00
             0.0000000000000000E+00    0.0000000000000000E+00    0.0000000000000000E+00
             0.0000000000000000E+00    0.0000000000000000E+00    0.0000000000000000E+00
             0.0000000000000000E+00    0.0000000000000000E+00    0.0000000000000000E+00
             0.0000000000000000E+00    0.0000000000000000E+00    0.0000000000000000E+00
             0.0000000000000000E+00    0.0000000000000000E+00    0.0000000000000000E+00