     183
 i =       0, E =    -5729.7826078957
 Au         0.0000000000        0.0000000000        0.0000000000
 Au         0.0000000000        2.9550000000        0.0000000000
 Au         0.0000000000        5.9110000000        0.0000000000
 Au         2.9560000000        0.0000000000        0.0000000000
 Au         2.9560000000        2.9550000000        0.0000000000
 Au         2.9560000000        5.9110000000        0.0000000000
 Au         5.9120000000        0.0000000000        0.0000000000
 Au         5.9120000000        2.9550000000        0.0000000000
 Au         5.9120000000        5.9110000000        0.0000000000
 Au         8.6700000000        0.0000000000        0.0000000000
 Au         8.6700000000        2.9550000000        0.0000000000
 Au         8.6700000000        5.9110000000        0.0000000000
 Au        11.6260000000        0.0000000000        0.0000000000
 Au        11.6260000000        2.9550000000        0.0000000000
 Au        11.6260000000        5.9110000000        0.0000000000
 Au         1.4780000000        1.4780000000        2.0900000000
 Au         1.4780000000        4.4330000000        2.0900000000
 Au         1.4780000000        7.3890000000        2.0900000000
 Au         4.4340000000        1.4780000000        2.0900000000
 Au         4.4340000000        4.4330000000        2.0900000000
 Au         4.4340000000        7.3890000000        2.0900000000
 Au         7.1920000000        1.4780000000        2.0900000000
 Au         7.1920000000        4.4330000000        2.0900000000
 Au         7.1920000000        7.3890000000        2.0900000000
 Au        10.1480000000        1.4780000000        2.0900000000
 Au        10.1480000000        4.4330000000        2.0900000000
 Au        10.1480000000        7.3890000000        2.0900000000
 Au        13.1040000000        1.4780000000        2.0900000000
 Au        13.1040000000        4.4330000000        2.0900000000
 Au        13.1040000000        7.3890000000        2.0900000000
 Au         0.0000000000        0.0000000000        4.1800000000
 Au         0.0000000000        2.9550000000        4.1800000000
 Au         0.0000000000        5.9110000000        4.1800000000
 Au         2.9560000000        0.0000000000        4.1800000000
 Au         2.9560000000        2.9550000000        4.1800000000
 Au         2.9560000000        5.9110000000        4.1800000000
 Au         5.9120000000        0.0000000000        4.1800000000
 Au         5.9120000000        2.9550000000        4.1800000000
 Au         5.9120000000        5.9110000000        4.1800000000
 Au         8.6700000000        0.0000000000        4.1800000000
 Au         8.6700000000        2.9550000000        4.1800000000
 Au         8.6700000000        5.9110000000        4.1800000000
 Au        11.6260000000        0.0000000000        4.1800000000
 Au        11.6260000000        2.9550000000        4.1800000000
 Au        11.6260000000        5.9110000000        4.1800000000
 Au         1.4780000000        1.4780000000        6.2700000000
 Au         1.4780000000        4.4330000000        6.2700000000
 Au         1.4780000000        7.3890000000        6.2700000000
 Au         4.4340000000        1.4780000000        6.2700000000
 Au         4.4340000000        4.4330000000        6.2700000000
 Au         4.4340000000        7.3890000000        6.2700000000
 Au         7.1920000000        1.4780000000        6.2700000000
 Au         7.1920000000        4.4330000000        6.2700000000
 Au         7.1920000000        7.3890000000        6.2700000000
 Au        10.1480000000        1.4780000000        6.2700000000
 Au        10.1480000000        4.4330000000        6.2700000000
 Au        10.1480000000        7.3890000000        6.2700000000
 Au        13.1040000000        1.4780000000        6.2700000000
 Au        13.1040000000        4.4330000000        6.2700000000
 Au        13.1040000000        7.3890000000        6.2700000000
 Au         0.0000000000        0.0000000000        8.3600000000
 Au         0.0000000000        2.9550000000        8.3600000000
 Au         0.0000000000        5.9110000000        8.3600000000
 Au         2.9560000000        0.0000000000        8.3600000000
 Au         2.9560000000        2.9550000000        8.3600000000
 Au         2.9560000000        5.9110000000        8.3600000000
 Au         5.9120000000        0.0000000000        8.3600000000
 Au         5.9120000000        2.9550000000        8.3600000000
 Au         5.9120000000        5.9110000000        8.3600000000
 Au         8.6700000000        0.0000000000        8.3600000000
 Au         8.6700000000        2.9550000000        8.3600000000
 Au         8.6700000000        5.9110000000        8.3600000000
 Au        11.6260000000        0.0000000000        8.3600000000
 Au        11.6260000000        2.9550000000        8.3600000000
 Au        11.6260000000        5.9110000000        8.3600000000
 Au         1.4780000000        1.4780000000       10.4500000000
 Au         1.4780000000        4.4330000000       10.4500000000
 Au         1.4780000000        7.3890000000       10.4500000000
 Au         4.4340000000        1.4780000000       10.4500000000
 Au         4.4340000000        4.4330000000       10.4500000000
 Au         4.4340000000        7.3890000000       10.4500000000
 Au         7.1920000000        1.4780000000       10.4500000000
 Au         7.1920000000        4.4330000000       10.4500000000
 Au         7.1920000000        7.3890000000       10.4500000000
 Au        10.1480000000        1.4780000000       10.4500000000
 Au        10.1480000000        4.4330000000       10.4500000000
 Au        10.1480000000        7.3890000000       10.4500000000
 Au        13.1040000000        1.4780000000       10.4500000000
 Au        13.1040000000        4.4330000000       10.4500000000
 Au        13.1040000000        7.3890000000       10.4500000000
  N         4.8554000000        5.9119000000       12.0318000000
  N         9.5280000000        5.9137000000       12.0340000000
  N         7.1920000000        5.9340000000       12.0400000000
  H        10.3189054048        5.9087793826       12.6857470732
  H         4.0673339928        5.9059993220       12.6877413689
  C         8.3738707293        5.9179777707       12.7314572522
  C         5.9989554222        5.9152564166       12.7926424112
  N         8.3227525762        5.9051536095       14.0804976421
  N         5.9344285049        5.8981604865       14.1017499696
  H         9.1743570613        5.8876302392       14.6410177353
  C         7.1039653577        5.8899410689       14.8287032191
  N         7.2416021047        5.8657702092       16.1064667573
  H         6.3118250323        5.8547577071       16.5396013062
 Au         7.3120000000        5.9340000000       21.0430000000
 Au         5.8130000000        7.4340000000       22.9920000000
 Au         8.8130000000        4.4340000000       22.9920000000
 Au         5.8130000000        4.4330000000       22.9920000000
 Au         8.8130000000        7.4340000000       22.9920000000
 Au         1.4780000000        1.4780000000       25.0820000000
 Au         1.4780000000        4.4330000000       25.0820000000
 Au         1.4780000000        7.3890000000       25.0820000000
 Au         4.4340000000        1.4780000000       25.0820000000
 Au         4.4340000000        4.4330000000       25.0820000000
 Au         4.4340000000        7.3890000000       25.0820000000
 Au         7.1920000000        1.4780000000       25.0820000000
 Au         7.1920000000        4.4330000000       25.0820000000
 Au         7.1920000000        7.3890000000       25.0820000000
 Au        10.1480000000        1.4780000000       25.0820000000
 Au        10.1480000000        4.4330000000       25.0820000000
 Au        10.1480000000        7.3890000000       25.0820000000
 Au        13.1040000000        1.4780000000       25.0820000000
 Au        13.1040000000        4.4330000000       25.0820000000
 Au        13.1040000000        7.3890000000       25.0820000000
 Au         0.0000000000        0.0000000000       27.1720000000
 Au         0.0000000000        2.9550000000       27.1720000000
 Au         0.0000000000        5.9110000000       27.1720000000
 Au         2.9560000000        0.0000000000       27.1720000000
 Au         2.9560000000        2.9550000000       27.1720000000
 Au         2.9560000000        5.9110000000       27.1720000000
 Au         5.9120000000        0.0000000000       27.1720000000
 Au         5.9120000000        2.9550000000       27.1720000000
 Au         5.9120000000        5.9110000000       27.1720000000
 Au         8.6700000000        0.0000000000       27.1720000000
 Au         8.6700000000        2.9550000000       27.1720000000
 Au         8.6700000000        5.9110000000       27.1720000000
 Au        11.6260000000        0.0000000000       27.1720000000
 Au        11.6260000000        2.9550000000       27.1720000000
 Au        11.6260000000        5.9110000000       27.1720000000
 Au         1.4780000000        1.4780000000       29.2620000000
 Au         1.4780000000        4.4330000000       29.2620000000
 Au         1.4780000000        7.3890000000       29.2620000000
 Au         4.4340000000        1.4780000000       29.2620000000
 Au         4.4340000000        4.4330000000       29.2620000000
 Au         4.4340000000        7.3890000000       29.2620000000
 Au         7.1920000000        1.4780000000       29.2620000000
 Au         7.1920000000        4.4330000000       29.2620000000
 Au         7.1920000000        7.3890000000       29.2620000000
 Au        10.1480000000        1.4780000000       29.2620000000
 Au        10.1480000000        4.4330000000       29.2620000000
 Au        10.1480000000        7.3890000000       29.2620000000
 Au        13.1040000000        1.4780000000       29.2620000000
 Au        13.1040000000        4.4330000000       29.2620000000
 Au        13.1040000000        7.3890000000       29.2620000000
 Au         0.0000000000        0.0000000000       31.3520000000
 Au         0.0000000000        2.9550000000       31.3520000000
 Au         0.0000000000        5.9110000000       31.3520000000
 Au         2.9560000000        0.0000000000       31.3520000000
 Au         2.9560000000        2.9550000000       31.3520000000
 Au         2.9560000000        5.9110000000       31.3520000000
 Au         5.9120000000        0.0000000000       31.3520000000
 Au         5.9120000000        2.9550000000       31.3520000000
 Au         5.9120000000        5.9110000000       31.3520000000
 Au         8.6700000000        0.0000000000       31.3520000000
 Au         8.6700000000        2.9550000000       31.3520000000
 Au         8.6700000000        5.9110000000       31.3520000000
 Au        11.6260000000        0.0000000000       31.3520000000
 Au        11.6260000000        2.9550000000       31.3520000000
 Au        11.6260000000        5.9110000000       31.3520000000
 Au         1.4780000000        1.4780000000       33.4420000000
 Au         1.4780000000        4.4330000000       33.4420000000
 Au         1.4780000000        7.3890000000       33.4420000000
 Au         4.4340000000        1.4780000000       33.4420000000
 Au         4.4340000000        4.4330000000       33.4420000000
 Au         4.4340000000        7.3890000000       33.4420000000
 Au         7.1920000000        1.4780000000       33.4420000000
 Au         7.1920000000        4.4330000000       33.4420000000
 Au         7.1920000000        7.3890000000       33.4420000000
 Au        10.1480000000        1.4780000000       33.4420000000
 Au        10.1480000000        4.4330000000       33.4420000000
 Au        10.1480000000        7.3890000000       33.4420000000
 Au        13.1040000000        1.4780000000       33.4420000000
 Au        13.1040000000        4.4330000000       33.4420000000
 Au        13.1040000000        7.3890000000       33.4420000000
     183
 i =       1, E =    -5729.7826078961
 Au         0.0000000000        0.0000000000        0.0000000000
 Au         0.0000000000        2.9550000000        0.0000000000
 Au         0.0000000000        5.9110000000        0.0000000000
 Au         2.9560000000        0.0000000000        0.0000000000
 Au         2.9560000000        2.9550000000        0.0000000000
 Au         2.9560000000        5.9110000000        0.0000000000
 Au         5.9120000000        0.0000000000        0.0000000000
 Au         5.9120000000        2.9550000000        0.0000000000
 Au         5.9120000000        5.9110000000        0.0000000000
 Au         8.6700000000        0.0000000000        0.0000000000
 Au         8.6700000000        2.9550000000        0.0000000000
 Au         8.6700000000        5.9110000000        0.0000000000
 Au        11.6260000000        0.0000000000        0.0000000000
 Au        11.6260000000        2.9550000000        0.0000000000
 Au        11.6260000000        5.9110000000        0.0000000000
 Au         1.4780000000        1.4780000000        2.0900000000
 Au         1.4780000000        4.4330000000        2.0900000000
 Au         1.4780000000        7.3890000000        2.0900000000
 Au         4.4340000000        1.4780000000        2.0900000000
 Au         4.4340000000        4.4330000000        2.0900000000
 Au         4.4340000000        7.3890000000        2.0900000000
 Au         7.1920000000        1.4780000000        2.0900000000
 Au         7.1920000000        4.4330000000        2.0900000000
 Au         7.1920000000        7.3890000000        2.0900000000
 Au        10.1480000000        1.4780000000        2.0900000000
 Au        10.1480000000        4.4330000000        2.0900000000
 Au        10.1480000000        7.3890000000        2.0900000000
 Au        13.1040000000        1.4780000000        2.0900000000
 Au        13.1040000000        4.4330000000        2.0900000000
 Au        13.1040000000        7.3890000000        2.0900000000
 Au         0.0000000000        0.0000000000        4.1800000000
 Au         0.0000000000        2.9550000000        4.1800000000
 Au         0.0000000000        5.9110000000        4.1800000000
 Au         2.9560000000        0.0000000000        4.1800000000
 Au         2.9560000000        2.9550000000        4.1800000000
 Au         2.9560000000        5.9110000000        4.1800000000
 Au         5.9120000000        0.0000000000        4.1800000000
 Au         5.9120000000        2.9550000000        4.1800000000
 Au         5.9120000000        5.9110000000        4.1800000000
 Au         8.6700000000        0.0000000000        4.1800000000
 Au         8.6700000000        2.9550000000        4.1800000000
 Au         8.6700000000        5.9110000000        4.1800000000
 Au        11.6260000000        0.0000000000        4.1800000000
 Au        11.6260000000        2.9550000000        4.1800000000
 Au        11.6260000000        5.9110000000        4.1800000000
 Au         1.4780000000        1.4780000000        6.2700000000
 Au         1.4780000000        4.4330000000        6.2700000000
 Au         1.4780000000        7.3890000000        6.2700000000
 Au         4.4340000000        1.4780000000        6.2700000000
 Au         4.4340000000        4.4330000000        6.2700000000
 Au         4.4340000000        7.3890000000        6.2700000000
 Au         7.1920000000        1.4780000000        6.2700000000
 Au         7.1920000000        4.4330000000        6.2700000000
 Au         7.1920000000        7.3890000000        6.2700000000
 Au        10.1480000000        1.4780000000        6.2700000000
 Au        10.1480000000        4.4330000000        6.2700000000
 Au        10.1480000000        7.3890000000        6.2700000000
 Au        13.1040000000        1.4780000000        6.2700000000
 Au        13.1040000000        4.4330000000        6.2700000000
 Au        13.1040000000        7.3890000000        6.2700000000
 Au         0.0000000000        0.0000000000        8.3600000000
 Au         0.0000000000        2.9550000000        8.3600000000
 Au         0.0000000000        5.9110000000        8.3600000000
 Au         2.9560000000        0.0000000000        8.3600000000
 Au         2.9560000000        2.9550000000        8.3600000000
 Au         2.9560000000        5.9110000000        8.3600000000
 Au         5.9120000000        0.0000000000        8.3600000000
 Au         5.9120000000        2.9550000000        8.3600000000
 Au         5.9120000000        5.9110000000        8.3600000000
 Au         8.6700000000        0.0000000000        8.3600000000
 Au         8.6700000000        2.9550000000        8.3600000000
 Au         8.6700000000        5.9110000000        8.3600000000
 Au        11.6260000000        0.0000000000        8.3600000000
 Au        11.6260000000        2.9550000000        8.3600000000
 Au        11.6260000000        5.9110000000        8.3600000000
 Au         1.4780000000        1.4780000000       10.4500000000
 Au         1.4780000000        4.4330000000       10.4500000000
 Au         1.4780000000        7.3890000000       10.4500000000
 Au         4.4340000000        1.4780000000       10.4500000000
 Au         4.4340000000        4.4330000000       10.4500000000
 Au         4.4340000000        7.3890000000       10.4500000000
 Au         7.1920000000        1.4780000000       10.4500000000
 Au         7.1920000000        4.4330000000       10.4500000000
 Au         7.1920000000        7.3890000000       10.4500000000
 Au        10.1480000000        1.4780000000       10.4500000000
 Au        10.1480000000        4.4330000000       10.4500000000
 Au        10.1480000000        7.3890000000       10.4500000000
 Au        13.1040000000        1.4780000000       10.4500000000
 Au        13.1040000000        4.4330000000       10.4500000000
 Au        13.1040000000        7.3890000000       10.4500000000
  N         4.8554000000        5.9119000000       12.0318000000
  N         9.5280000000        5.9137000000       12.0340000000
  N         7.1920000000        5.9340000000       12.0400000000
  H        10.3189054048        5.9087793826       12.6857470732
  H         4.0673339928        5.9059993220       12.6877413689
  C         8.3738707293        5.9179777707       12.7314572522
  C         5.9989554222        5.9152564166       12.7926424112
  N         8.3227525762        5.9051536095       14.0804976421
  N         5.9344285049        5.8981604865       14.1017499696
  H         9.1743570613        5.8876302392       14.6410177353
  C         7.1039653577        5.8899410689       14.8287032191
  N         7.2416021047        5.8657702092       16.1064667573
  H         6.3118250323        5.8547577071       16.5396013062
 Au         7.3120000000        5.9340000000       21.0430000000
 Au         5.8130000000        7.4340000000       22.9920000000
 Au         8.8130000000        4.4340000000       22.9920000000
 Au         5.8130000000        4.4330000000       22.9920000000
 Au         8.8130000000        7.4340000000       22.9920000000
 Au         1.4780000000        1.4780000000       25.0820000000
 Au         1.4780000000        4.4330000000       25.0820000000
 Au         1.4780000000        7.3890000000       25.0820000000
 Au         4.4340000000        1.4780000000       25.0820000000
 Au         4.4340000000        4.4330000000       25.0820000000
 Au         4.4340000000        7.3890000000       25.0820000000
 Au         7.1920000000        1.4780000000       25.0820000000
 Au         7.1920000000        4.4330000000       25.0820000000
 Au         7.1920000000        7.3890000000       25.0820000000
 Au        10.1480000000        1.4780000000       25.0820000000
 Au        10.1480000000        4.4330000000       25.0820000000
 Au        10.1480000000        7.3890000000       25.0820000000
 Au        13.1040000000        1.4780000000       25.0820000000
 Au        13.1040000000        4.4330000000       25.0820000000
 Au        13.1040000000        7.3890000000       25.0820000000
 Au         0.0000000000        0.0000000000       27.1720000000
 Au         0.0000000000        2.9550000000       27.1720000000
 Au         0.0000000000        5.9110000000       27.1720000000
 Au         2.9560000000        0.0000000000       27.1720000000
 Au         2.9560000000        2.9550000000       27.1720000000
 Au         2.9560000000        5.9110000000       27.1720000000
 Au         5.9120000000        0.0000000000       27.1720000000
 Au         5.9120000000        2.9550000000       27.1720000000
 Au         5.9120000000        5.9110000000       27.1720000000
 Au         8.6700000000        0.0000000000       27.1720000000
 Au         8.6700000000        2.9550000000       27.1720000000
 Au         8.6700000000        5.9110000000       27.1720000000
 Au        11.6260000000        0.0000000000       27.1720000000
 Au        11.6260000000        2.9550000000       27.1720000000
 Au        11.6260000000        5.9110000000       27.1720000000
 Au         1.4780000000        1.4780000000       29.2620000000
 Au         1.4780000000        4.4330000000       29.2620000000
 Au         1.4780000000        7.3890000000       29.2620000000
 Au         4.4340000000        1.4780000000       29.2620000000
 Au         4.4340000000        4.4330000000       29.2620000000
 Au         4.4340000000        7.3890000000       29.2620000000
 Au         7.1920000000        1.4780000000       29.2620000000
 Au         7.1920000000        4.4330000000       29.2620000000
 Au         7.1920000000        7.3890000000       29.2620000000
 Au        10.1480000000        1.4780000000       29.2620000000
 Au        10.1480000000        4.4330000000       29.2620000000
 Au        10.1480000000        7.3890000000       29.2620000000
 Au        13.1040000000        1.4780000000       29.2620000000
 Au        13.1040000000        4.4330000000       29.2620000000
 Au        13.1040000000        7.3890000000       29.2620000000
 Au         0.0000000000        0.0000000000       31.3520000000
 Au         0.0000000000        2.9550000000       31.3520000000
 Au         0.0000000000        5.9110000000       31.3520000000
 Au         2.9560000000        0.0000000000       31.3520000000
 Au         2.9560000000        2.9550000000       31.3520000000
 Au         2.9560000000        5.9110000000       31.3520000000
 Au         5.9120000000        0.0000000000       31.3520000000
 Au         5.9120000000        2.9550000000       31.3520000000
 Au         5.9120000000        5.9110000000       31.3520000000
 Au         8.6700000000        0.0000000000       31.3520000000
 Au         8.6700000000        2.9550000000       31.3520000000
 Au         8.6700000000        5.9110000000       31.3520000000
 Au        11.6260000000        0.0000000000       31.3520000000
 Au        11.6260000000        2.9550000000       31.3520000000
 Au        11.6260000000        5.9110000000       31.3520000000
 Au         1.4780000000        1.4780000000       33.4420000000
 Au         1.4780000000        4.4330000000       33.4420000000
 Au         1.4780000000        7.3890000000       33.4420000000
 Au         4.4340000000        1.4780000000       33.4420000000
 Au         4.4340000000        4.4330000000       33.4420000000
 Au         4.4340000000        7.3890000000       33.4420000000
 Au         7.1920000000        1.4780000000       33.4420000000
 Au         7.1920000000        4.4330000000       33.4420000000
 Au         7.1920000000        7.3890000000       33.4420000000
 Au        10.1480000000        1.4780000000       33.4420000000
 Au        10.1480000000        4.4330000000       33.4420000000
 Au        10.1480000000        7.3890000000       33.4420000000
 Au        13.1040000000        1.4780000000       33.4420000000
 Au        13.1040000000        4.4330000000       33.4420000000
 Au        13.1040000000        7.3890000000       33.4420000000
     183
 i =       2, E =    -5729.7826078961
 Au         0.0000000000        0.0000000000        0.0000000000
 Au         0.0000000000        2.9550000000        0.0000000000
 Au         0.0000000000        5.9110000000        0.0000000000
 Au         2.9560000000        0.0000000000        0.0000000000
 Au         2.9560000000        2.9550000000        0.0000000000
 Au         2.9560000000        5.9110000000        0.0000000000
 Au         5.9120000000        0.0000000000        0.0000000000
 Au         5.9120000000        2.9550000000        0.0000000000
 Au         5.9120000000        5.9110000000        0.0000000000
 Au         8.6700000000        0.0000000000        0.0000000000
 Au         8.6700000000        2.9550000000        0.0000000000
 Au         8.6700000000        5.9110000000        0.0000000000
 Au        11.6260000000        0.0000000000        0.0000000000
 Au        11.6260000000        2.9550000000        0.0000000000
 Au        11.6260000000        5.9110000000        0.0000000000
 Au         1.4780000000        1.4780000000        2.0900000000
 Au         1.4780000000        4.4330000000        2.0900000000
 Au         1.4780000000        7.3890000000        2.0900000000
 Au         4.4340000000        1.4780000000        2.0900000000
 Au         4.4340000000        4.4330000000        2.0900000000
 Au         4.4340000000        7.3890000000        2.0900000000
 Au         7.1920000000        1.4780000000        2.0900000000
 Au         7.1920000000        4.4330000000        2.0900000000
 Au         7.1920000000        7.3890000000        2.0900000000
 Au        10.1480000000        1.4780000000        2.0900000000
 Au        10.1480000000        4.4330000000        2.0900000000
 Au        10.1480000000        7.3890000000        2.0900000000
 Au        13.1040000000        1.4780000000        2.0900000000
 Au        13.1040000000        4.4330000000        2.0900000000
 Au        13.1040000000        7.3890000000        2.0900000000
 Au         0.0000000000        0.0000000000        4.1800000000
 Au         0.0000000000        2.9550000000        4.1800000000
 Au         0.0000000000        5.9110000000        4.1800000000
 Au         2.9560000000        0.0000000000        4.1800000000
 Au         2.9560000000        2.9550000000        4.1800000000
 Au         2.9560000000        5.9110000000        4.1800000000
 Au         5.9120000000        0.0000000000        4.1800000000
 Au         5.9120000000        2.9550000000        4.1800000000
 Au         5.9120000000        5.9110000000        4.1800000000
 Au         8.6700000000        0.0000000000        4.1800000000
 Au         8.6700000000        2.9550000000        4.1800000000
 Au         8.6700000000        5.9110000000        4.1800000000
 Au        11.6260000000        0.0000000000        4.1800000000
 Au        11.6260000000        2.9550000000        4.1800000000
 Au        11.6260000000        5.9110000000        4.1800000000
 Au         1.4780000000        1.4780000000        6.2700000000
 Au         1.4780000000        4.4330000000        6.2700000000
 Au         1.4780000000        7.3890000000        6.2700000000
 Au         4.4340000000        1.4780000000        6.2700000000
 Au         4.4340000000        4.4330000000        6.2700000000
 Au         4.4340000000        7.3890000000        6.2700000000
 Au         7.1920000000        1.4780000000        6.2700000000
 Au         7.1920000000        4.4330000000        6.2700000000
 Au         7.1920000000        7.3890000000        6.2700000000
 Au        10.1480000000        1.4780000000        6.2700000000
 Au        10.1480000000        4.4330000000        6.2700000000
 Au        10.1480000000        7.3890000000        6.2700000000
 Au        13.1040000000        1.4780000000        6.2700000000
 Au        13.1040000000        4.4330000000        6.2700000000
 Au        13.1040000000        7.3890000000        6.2700000000
 Au         0.0000000000        0.0000000000        8.3600000000
 Au         0.0000000000        2.9550000000        8.3600000000
 Au         0.0000000000        5.9110000000        8.3600000000
 Au         2.9560000000        0.0000000000        8.3600000000
 Au         2.9560000000        2.9550000000        8.3600000000
 Au         2.9560000000        5.9110000000        8.3600000000
 Au         5.9120000000        0.0000000000        8.3600000000
 Au         5.9120000000        2.9550000000        8.3600000000
 Au         5.9120000000        5.9110000000        8.3600000000
 Au         8.6700000000        0.0000000000        8.3600000000
 Au         8.6700000000        2.9550000000        8.3600000000
 Au         8.6700000000        5.9110000000        8.3600000000
 Au        11.6260000000        0.0000000000        8.3600000000
 Au        11.6260000000        2.9550000000        8.3600000000
 Au        11.6260000000        5.9110000000        8.3600000000
 Au         1.4780000000        1.4780000000       10.4500000000
 Au         1.4780000000        4.4330000000       10.4500000000
 Au         1.4780000000        7.3890000000       10.4500000000
 Au         4.4340000000        1.4780000000       10.4500000000
 Au         4.4340000000        4.4330000000       10.4500000000
 Au         4.4340000000        7.3890000000       10.4500000000
 Au         7.1920000000        1.4780000000       10.4500000000
 Au         7.1920000000        4.4330000000       10.4500000000
 Au         7.1920000000        7.3890000000       10.4500000000
 Au        10.1480000000        1.4780000000       10.4500000000
 Au        10.1480000000        4.4330000000       10.4500000000
 Au        10.1480000000        7.3890000000       10.4500000000
 Au        13.1040000000        1.4780000000       10.4500000000
 Au        13.1040000000        4.4330000000       10.4500000000
 Au        13.1040000000        7.3890000000       10.4500000000
  N         4.8554000000        5.9119000000       12.0318000000
  N         9.5280000000        5.9137000000       12.0340000000
  N         7.1920000000        5.9340000000       12.0400000000