     183
 i =       0, E =    -5729.7454638799
 Au         0.0001161393        0.0002342467        0.0001862097
 Au         0.0001439085        2.9552342406        0.0000960967
 Au         0.0001716870        5.9112342346        0.0000059532
 Au         2.9561161382        0.0002064646        0.0001572668
 Au         2.9561439074        2.9552064585        0.0000671538
 Au         2.9561716859        5.9112064525       -0.0000229897
 Au         5.9121161371        0.0001786824        0.0001283239
 Au         5.9121439063        2.9551786764        0.0000382109
 Au         5.9121716849        5.9111786704       -0.0000519326
 Au         8.6701161361        0.0001527612        0.0001013197
 Au         8.6701439053        2.9551527552        0.0000112067
 Au         8.6701716838        5.9111527492       -0.0000789368
 Au        11.6261161350        0.0001249791        0.0000723769
 Au        11.6261439042        2.9551249731       -0.0000177361
 Au        11.6261716828        5.9111249671       -0.0001078796
 Au         1.4781504941        1.4782840866        2.0901266622
 Au         1.4781782633        4.4332840806        2.0900365492
 Au         1.4782060418        7.3892840745        2.0899464057
 Au         4.4341504930        1.4782563045        2.0900977193
 Au         4.4341782622        4.4332562984        2.0900076063
 Au         4.4342060408        7.3892562924        2.0899174628
 Au         7.1921504920        1.4782303833        2.0900707151
 Au         7.1921782612        4.4332303772        2.0899806021
 Au         7.1922060397        7.3892303712        2.0898904586
 Au        10.1481504909        1.4782026011        2.0900417723
 Au        10.1481782601        4.4332025951        2.0899516593
 Au        10.1482060386        7.3892025891        2.0898615158
 Au        13.1041504898        1.4781748190        2.0900128294
 Au        13.1041782590        4.4331748130        2.0899227164
 Au        13.1042060376        7.3891748070        2.0898325729
 Au         0.0001570714        0.0003617146        4.1801862011
 Au         0.0001848406        2.9553617086        4.1800960881
 Au         0.0002126192        5.9113617026        4.1800059446
 Au         2.9561570703        0.0003339325        4.1801572582
 Au         2.9561848395        2.9553339265        4.1800671452
 Au         2.9562126181        5.9113339205        4.1799770017
 Au         5.9121570692        0.0003061504        4.1801283154
 Au         5.9121848384        2.9553061444        4.1800382024
 Au         5.9122126170        5.9113061383        4.1799480589
 Au         8.6701570682        0.0002802292        4.1801013111
 Au         8.6701848374        2.9552802232        4.1800111982
 Au         8.6702126160        5.9112802171        4.1799210547
 Au        11.6261570671        0.0002524471        4.1800723683
 Au        11.6261848363        2.9552524411        4.1799822553
 Au        11.6262126149        5.9112524350        4.1798921118
 Au         1.4781914262        1.4784115545        6.2701266536
 Au         1.4782191954        4.4334115485        6.2700365406
 Au         1.4782469740        7.3894115425        6.2699463971
 Au         4.4341914251        1.4783837724        6.2700977108
 Au         4.4342191943        4.4333837664        6.2700075978
 Au         4.4342469729        7.3893837604        6.2699174543
 Au         7.1921914241        1.4783578512        6.2700707065
 Au         7.1922191933        4.4333578452        6.2699805936
 Au         7.1922469719        7.3893578392        6.2698904501
 Au        10.1481914230        1.4783300691        6.2700417637
 Au        10.1482191922        4.4333300631        6.2699516507
 Au        10.1482469708        7.3893300570        6.2698615072
 Au        13.1041914219        1.4783022870        6.2700128208
 Au        13.1042191911        4.4333022810        6.2699227078
 Au        13.1042469697        7.3893022749        6.2698325643
 Au         0.0001980035        0.0004891826        8.3601861925
 Au         0.0002257727        2.9554891765        8.3600960795
 Au         0.0002535513        5.9114891705        8.3600059360
 Au         2.9561980024        0.0004614004        8.3601572496
 Au         2.9562257716        2.9554613944        8.3600671366
 Au         2.9562535502        5.9114613884        8.3599769932
 Au         5.9121980013        0.0004336183        8.3601283068
 Au         5.9122257705        2.9554336123        8.3600381938
 Au         5.9122535491        5.9114336063        8.3599480503
 Au         8.6701980003        0.0004076971        8.3601013026
 Au         8.6702257695        2.9554076911        8.3600111896
 Au         8.6702535481        5.9114076851        8.3599210461
 Au        11.6261979992        0.0003799150        8.3600723597
 Au        11.6262257684        2.9553799090        8.3599822467
 Au        11.6262535470        5.9113799030        8.3598921032
 Au         1.4782323583        1.4785390225       10.4501266450
 Au         1.4782601275        4.4335390164       10.4500365320
 Au         1.4782879061        7.3895390104       10.4499463886
 Au         4.4342323572        1.4785112403       10.4500977022
 Au         4.4342601264        4.4335112343       10.4500075892
 Au         4.4342879050        7.3895112283       10.4499174457
 Au         7.1922323562        1.4784853191       10.4500706980
 Au         7.1922601254        4.4334853131       10.4499805850
 Au         7.1922879040        7.3894853071       10.4498904415
 Au        10.1482323551        1.4784575370       10.4500417551
 Au        10.1482601243        4.4334575310       10.4499516421
 Au        10.1482879029        7.3894575250       10.4498614986
 Au        13.1042323540        1.4784297549       10.4500128122
 Au        13.1042601232        4.4334297489       10.4499226992
 Au        13.1042879018        7.3894297429       10.4498325558
  N         4.8555895071        5.9122305172       12.0318083921
  N         9.5282895437        5.9140366587       12.0339125767
  N         7.1922898007        5.9345337967       12.0399348086
  H        10.3267746291        5.9128819665       12.6742895318
  H         4.0640462582        5.9091318769       12.6822471114
  C         8.3731993884        5.9226514084       12.7253911971
  C         5.9991383666        5.9204091331       12.7832033135
  N         8.3178744307        5.9206755671       14.0785462254
  N         5.9332066328        5.9154038332       14.1010587185
  H         9.1679829454        5.8973923216       14.6401792528
  C         7.0958167115        5.9171757784       14.8285865078
  N         7.2224562786        5.8826360709       16.1092352490
  H         6.5510370003        6.0716197539       16.5901110874
 Au         7.2823779614        5.9348083407       21.0429347901
 Au         5.8381588691        7.3743798025       22.9919089561
 Au         8.7776329502        4.4348538869       22.9919660573
 Au         5.8381329418        4.4338798081       22.9919930920
 Au         8.7776588681        7.3743538813       22.9918819519
 Au         1.4783756403        1.4789852212       25.0821266150
 Au         1.4784034095        4.4339852152       25.0820365020
 Au         1.4784311881        7.3899852092       25.0819463585
 Au         4.4343756392        1.4789574391       25.0820976722
 Au         4.4344034084        4.4339574331       25.0820075592
 Au         4.4344311870        7.3899574271       25.0819174157
 Au         7.1923756382        1.4789315179       25.0820706680
 Au         7.1924034074        4.4339315119       25.0819805550
 Au         7.1924311860        7.3899315059       25.0818904115
 Au        10.1483756371        1.4789037358       25.0820417251
 Au        10.1484034063        4.4339037298       25.0819516121
 Au        10.1484311849        7.3899037238       25.0818614686
 Au        13.1043756360        1.4788759537       25.0820127822
 Au        13.1044034052        4.4338759477       25.0819226692
 Au        13.1044311838        7.3898759417       25.0818325257
 Au         0.0003822176        0.0010628493       27.1721861539
 Au         0.0004099868        2.9560628433       27.1720960409
 Au         0.0004377654        5.9120628372       27.1720058974
 Au         2.9563822166        0.0010350672       27.1721572110
 Au         2.9564099857        2.9560350611       27.1720670981
 Au         2.9564377643        5.9120350551       27.1719769546
 Au         5.9123822155        0.0010072851       27.1721282682
 Au         5.9124099847        2.9560072790       27.1720381552
 Au         5.9124377632        5.9120072730       27.1719480117
 Au         8.6703822144        0.0009813639       27.1721012640
 Au         8.6704099836        2.9559813578       27.1720111510
 Au         8.6704377622        5.9119813518       27.1719210075
 Au        11.6263822134        0.0009535817       27.1720723211
 Au        11.6264099825        2.9559535757       27.1719822081
 Au        11.6264377611        5.9119535697       27.1718920646
 Au         1.4784165725        1.4791126892       29.2621266064
 Au         1.4784443416        4.4341126832       29.2620364935
 Au         1.4784721202        7.3901126771       29.2619463500
 Au         4.4344165714        1.4790849071       29.2620976636
 Au         4.4344443405        4.4340849011       29.2620075506
 Au         4.4344721191        7.3900848950       29.2619174071
 Au         7.1924165703        1.4790589859       29.2620706594
 Au         7.1924443395        4.4340589799       29.2619805464
 Au         7.1924721181        7.3900589738       29.2618904029
 Au        10.1484165693        1.4790312038       29.2620417165
 Au        10.1484443384        4.4340311977       29.2619516035
 Au        10.1484721170        7.3900311917       29.2618614600
 Au        13.1044165682        1.4790034216       29.2620127736
 Au        13.1044443374        4.4340034156       29.2619226606
 Au        13.1044721159        7.3900034096       29.2618325172
 Au         0.0004231498        0.0011903172       31.3521861453
 Au         0.0004509190        2.9561903112       31.3520960323
 Au         0.0004786975        5.9121903052       31.3520058889
 Au         2.9564231487        0.0011625351       31.3521572025
 Au         2.9564509179        2.9561625291       31.3520670895
 Au         2.9564786964        5.9121625231       31.3519769460
 Au         5.9124231476        0.0011347530       31.3521282596
 Au         5.9124509168        2.9561347470       31.3520381466
 Au         5.9124786954        5.9121347410       31.3519480031
 Au         8.6704231466        0.0011088318       31.3521012554
 Au         8.6704509158        2.9561088258       31.3520111424
 Au         8.6704786943        5.9121088198       31.3519209989
 Au        11.6264231455        0.0010810497       31.3520723125
 Au        11.6264509147        2.9560810437       31.3519821995
 Au        11.6264786932        5.9120810376       31.3518920560
 Au         1.4784575046        1.4792401571       33.4421265979
 Au         1.4784852738        4.4342401511       33.4420364849
 Au         1.4785130523        7.3902401451       33.4419463414
 Au         4.4344575035        1.4792123750       33.4420976550
 Au         4.4344852727        4.4342123690       33.4420075420
 Au         4.4345130513        7.3902123630       33.4419173985
 Au         7.1924575025        1.4791864538       33.4420706508
 Au         7.1924852717        4.4341864478       33.4419805378
 Au         7.1925130502        7.3901864418       33.4418903943
 Au        10.1484575014        1.4791586717       33.4420417079
 Au        10.1484852706        4.4341586657       33.4419515949
 Au        10.1485130491        7.3901586597       33.4418614514
 Au        13.1044575003        1.4791308896       33.4420127651
 Au        13.1044852695        4.4341308836       33.4419226521
 Au        13.1045130481        7.3901308775       33.4418325086
     183
 i =       1, E =    -5729.7773808799
 Au         0.0001302653        0.0002627381        0.0002088584
 Au         0.0001614121        2.9552627314        0.0001077849
 Au         0.0001925694        5.9112627246        0.0000066773
 Au         2.9561302641        0.0002315769        0.0001763952
 Au         2.9561614108        2.9552315701        0.0000753217
 Au         2.9561925681        5.9112315634       -0.0000257859
 Au         5.9121302629        0.0002004156        0.0001439320
 Au         5.9121614096        2.9552004089        0.0000428585
 Au         5.9121925669        5.9112004021       -0.0000582491
 Au         8.6701302617        0.0001713416        0.0001136433
 Au         8.6701614085        2.9551713349        0.0000125698
 Au         8.6701925658        5.9111713281       -0.0000885379
 Au        11.6261302605        0.0001401804        0.0000811801
 Au        11.6261614073        2.9551401736       -0.0000198934
 Au        11.6261925646        5.9111401669       -0.0001210010
 Au         1.4781687987        1.4783186401        2.0901420681
 Au         1.4781999454        4.4333186333        2.0900409947
 Au         1.4782311027        7.3893186266        2.0899398870
 Au         4.4341687975        1.4782874788        2.0901096049
 Au         4.4341999442        4.4332874721        2.0900085315
 Au         4.4342311015        7.3892874653        2.0899074238
 Au         7.1921687963        1.4782584048        2.0900793162
 Au         7.1921999431        4.4332583981        2.0899782428
 Au         7.1922311004        7.3892583913        2.0898771351
 Au        10.1481687951        1.4782272436        2.0900468530
 Au        10.1481999419        4.4332272368        2.0899457796
 Au        10.1482310992        7.3892272301        2.0898446719
 Au        13.1041687939        1.4781960823        2.0900143898
 Au        13.1041999406        4.4331960755        2.0899133164
 Au        13.1042310979        7.3891960688        2.0898122087
 Au         0.0001761760        0.0004057100        4.1802088488
 Au         0.0002073228        2.9554057033        4.1801077753
 Au         0.0002384801        5.9114056965        4.1800066676
 Au         2.9561761748        0.0003745488        4.1801763856
 Au         2.9562073215        2.9553745420        4.1800753121
 Au         2.9562384788        5.9113745353        4.1799742045
 Au         5.9121761736        0.0003433875        4.1801439224
 Au         5.9122073203        2.9553433808        4.1800428489
 Au         5.9122384776        5.9113433740        4.1799417413
 Au         8.6701761724        0.0003143135        4.1801136336
 Au         8.6702073192        2.9553143068        4.1800125602
 Au         8.6702384765        5.9113143000        4.1799114525
 Au        11.6261761712        0.0002831522        4.1800811704
 Au        11.6262073180        2.9552831455        4.1799800970
 Au        11.6262384753        5.9112831387        4.1798789893
 Au         1.4782147094        1.4784616120        6.2701420585
 Au         1.4782458562        4.4334616052        6.2700409851
 Au         1.4782770134        7.3894615984        6.2699398774
 Au         4.4342147082        1.4784304507        6.2701095953
 Au         4.4342458549        4.4334304439        6.2700085219
 Au         4.4342770122        7.3894304372        6.2699074142
 Au         7.1922147070        1.4784013767        6.2700793066
 Au         7.1922458538        4.4334013699        6.2699782331
 Au         7.1922770111        7.3894013632        6.2698771255
 Au        10.1482147058        1.4783702154        6.2700468434
 Au        10.1482458526        4.4333702087        6.2699457700
 Au        10.1482770099        7.3893702019        6.2698446623
 Au        13.1042147046        1.4783390542        6.2700143802
 Au        13.1042458513        4.4333390474        6.2699133068
 Au        13.1042770086        7.3893390407        6.2698121991
 Au         0.0002220867        0.0005486819        8.3602088391
 Au         0.0002532335        2.9555486751        8.3601077657
 Au         0.0002843908        5.9115486684        8.3600066580
 Au         2.9562220855        0.0005175206        8.3601763759
 Au         2.9562532322        2.9555175139        8.3600753025
 Au         2.9562843895        5.9115175071        8.3599741948
 Au         5.9122220843        0.0004863594        8.3601439127
 Au         5.9122532310        2.9554863526        8.3600428393
 Au         5.9122843883        5.9114863459        8.3599417316
 Au         8.6702220831        0.0004572854        8.3601136240
 Au         8.6702532299        2.9554572786        8.3600125506
 Au         8.6702843872        5.9114572719        8.3599114429
 Au        11.6262220819        0.0004261241        8.3600811608
 Au        11.6262532287        2.9554261174        8.3599800874
 Au        11.6262843860        5.9114261106        8.3598789797
 Au         1.4782606201        1.4786045838       10.4501420489
 Au         1.4782917669        4.4336045771       10.4500409754
 Au         1.4783229241        7.3896045703       10.4499398678
 Au         4.4342606189        1.4785734226       10.4501095857
 Au         4.4342917656        4.4335734158       10.4500085123
 Au         4.4343229229        7.3895734091       10.4499074046
 Au         7.1922606177        1.4785443486       10.4500792970
 Au         7.1922917645        4.4335443418       10.4499782235
 Au         7.1923229218        7.3895443351       10.4498771159
 Au        10.1482606165        1.4785131873       10.4500468338
 Au        10.1482917633        4.4335131806       10.4499457603
 Au        10.1483229206        7.3895131738       10.4498446527
 Au        13.1042606153        1.4784820261       10.4500143706
 Au        13.1042917620        4.4334820193       10.4499132971
 Au        13.1043229193        7.3894820126       10.4498121895
  N         4.8556125569        5.9122707180       12.0318094128
  N         9.5283247610        5.9140776066       12.0339019434
  N         7.1923250492        5.9345987224       12.0399268793
  H        10.3274748038        5.9133465088       12.6735985738
  H         4.0638445390        5.9095038518       12.6820364377
  C         8.3733626872        5.9226877886       12.7276337388
  C         5.9992080417        5.9214852925       12.7865324623
  N         8.3170968189        5.9210558604       14.0779741609
  N         5.9320648717        5.9188148018       14.0978294118
  H         9.1672647096        5.8987588121       14.6403288898
  C         7.0937119017        5.9194131026       14.8339324809
  N         7.3030450387        5.8678662770       16.0513992616
  H         6.5000496032        6.1158581397       16.6487877839
 Au         7.2787750283        5.9349066593       21.0429268586
 Au         5.8412189462        7.3671281887       22.9918978824
 Au         8.7733312505        4.4349577453       22.9919619289
 Au         5.8411898654        4.4339868193       22.9919922518
 Au         8.7733603208        7.3670991147       22.9918675936
 Au         1.4784213295        1.4791050539       25.0821420152
 Au         1.4784524763        4.4341050471       25.0820409418
 Au         1.4784836336        7.3901050403       25.0819398341
 Au         4.4344213283        1.4790738926       25.0821095520
 Au         4.4344524751        4.4340738858       25.0820084786
 Au         4.4344836324        7.3900738791       25.0819073709
 Au         7.1924213272        1.4790448186       25.0820792633
 Au         7.1924524739        4.4340448118       25.0819781899
 Au         7.1924836312        7.3900448051       25.0818770822
 Au        10.1484213259        1.4790136573       25.0820468001
 Au        10.1484524727        4.4340136506       25.0819457267
 Au        10.1484836300        7.3900136438       25.0818446190
 Au        13.1044213247        1.4789824961       25.0820143369
 Au        13.1044524715        4.4339824893       25.0819132635
 Au        13.1044836288        7.3899824826       25.0818121558
 Au         0.0004287068        0.0011921238       27.1722087958
 Au         0.0004598536        2.9561921170       27.1721077224
 Au         0.0004910109        5.9121921103       27.1720066147
 Au         2.9564287056        0.0011609625       27.1721763327
 Au         2.9564598524        2.9561609558       27.1720752592
 Au         2.9564910097        5.9121609490       27.1719741515
 Au         5.9124287044        0.0011298013       27.1721438695
 Au         5.9124598511        2.9561297945       27.1720427960
 Au         5.9124910084        5.9121297878       27.1719416884
 Au         8.6704287033        0.0011007273       27.1721135807
 Au         8.6704598500        2.9561007205       27.1720125073
 Au         8.6704910073        5.9121007138       27.1719113996
 Au        11.6264287020        0.0010695660       27.1720811175
 Au        11.6264598488        2.9560695593       27.1719800441
 Au        11.6264910061        5.9120695525       27.1718789364
 Au         1.4784672402        1.4792480257       29.2621420056
 Au         1.4784983870        4.4342480190       29.2620409322
 Au         1.4785295443        7.3902480122       29.2619398245
 Au         4.4344672390        1.4792168645       29.2621095424
 Au         4.4344983858        4.4342168577       29.2620084690
 Au         4.4345295431        7.3902168510       29.2619073613
 Au         7.1924672379        1.4791877905       29.2620792537
 Au         7.1924983846        4.4341877837       29.2619781802
 Au         7.1925295419        7.3901877770       29.2618770726
 Au        10.1484672366        1.4791566292       29.2620467905
 Au        10.1484983834        4.4341566225       29.2619457170
 Au        10.1485295407        7.3901566157       29.2618446094
 Au        13.1044672354        1.4791254680       29.2620143273
 Au        13.1044983822        4.4341254612       29.2619132538
 Au        13.1045295395        7.3901254545       29.2618121462
 Au         0.0004746175        0.0013350957       31.3522087862
 Au         0.0005057643        2.9563350889       31.3521077128
 Au         0.0005369216        5.9123350822       31.3520066051
 Au         2.9564746163        0.0013039344       31.3521763230
 Au         2.9565057631        2.9563039277       31.3520752496
 Au         2.9565369204        5.9123039209       31.3519741419
 Au         5.9124746151        0.0012727732       31.3521438598
 Au         5.9125057618        2.9562727664       31.3520427864
 Au         5.9125369191        5.9122727597       31.3519416787
 Au         8.6704746140        0.0012436992       31.3521135711
 Au         8.6705057607        2.9562436924       31.3520124977
 Au         8.6705369180        5.9122436857       31.3519113900
 Au        11.6264746127        0.0012125379       31.3520811079
 Au        11.6265057595        2.9562125312       31.3519800345
 Au        11.6265369168        5.9122125244       31.3518789268
 Au         1.4785131509        1.4793909976       33.4421419960
 Au         1.4785442977        4.4343909909       33.4420409225
 Au         1.4785754550        7.3903909841       33.4419398149
 Au         4.4345131497        1.4793598364       33.4421095328
 Au         4.4345442965        4.4343598296       33.4420084593
 Au         4.4345754538        7.3903598229       33.4419073517
 Au         7.1925131486        1.4793307624       33.4420792441
 Au         7.1925442953        4.4343307556       33.4419781706
 Au         7.1925754526        7.3903307489       33.4418770630
 Au        10.1485131473        1.4792996011       33.4420467809
 Au        10.1485442941        4.4342995944       33.4419457074
 Au        10.1485754514        7.3902995876       33.4418445998
 Au        13.1045131461        1.4792684399       33.4420143177
 Au        13.1045442929        4.4342684331       33.4419132442
 Au        13.1045754502        7.3902684264       33.4418121366
     183
 i =       2, E =    -5729.7803636223
 Au         0.0001328840        0.0002680200        0.0002130571
 Au         0.0001646569        2.9552680131        0.0001099517
 Au         0.0001964406        5.9112680062        0.0000068115
 Au         2.9561328828        0.0002362323        0.0001799413
 Au         2.9561646557        2.9552362254        0.0000768359
 Au         2.9561964393        5.9112362185       -0.0000263043
 Au         5.9121328815        0.0002044446        0.0001468255
 Au         5.9121646544        2.9552044377        0.0000437201
 Au         5.9121964381        5.9112044308       -0.0000594201
 Au         8.6701328804        0.0001747861        0.0001159278
 Au         8.6701646533        2.9551747792        0.0000128225
 Au         8.6701964369        5.9111747723       -0.0000903177
 Au        11.6261328791        0.0001429984        0.0000828120
 Au        11.6261646520        2.9551429915       -0.0000202933
 Au        11.6261964357        5.9111429846       -0.0001234335
 Au         1.4781721921        1.4783250457        2.0901449241
 Au         1.4782039650        4.4333250388        2.0900418188
 Au         1.4782357486        7.3893250319        2.0899386786
 Au         4.4341721908        1.4782932580        2.0901118083
 Au         4.4342039637        4.4332932511        2.0900087030
 Au         4.4342357474        7.3892932442        2.0899055628
 Au         7.1921721896        1.4782635995        2.0900809107
 Au         7.1922039625        4.4332635926        2.0899778054
 Au         7.1922357462        7.3892635858        2.0898746652
 Au        10.1481721884        1.4782318118        2.0900477949
 Au        10.1482039613        4.4332318049        2.0899446896
 Au        10.1482357450        7.3892317981        2.0898415494
 Au        13.1041721872        1.4782000241        2.0900146791
 Au        13.1042039601        4.4332000173        2.0899115738
 Au        13.1042357437        7.3892000104        2.0898084336
 Au         0.0001797177        0.0004138660        4.1802130472
 Au         0.0002114906        2.9554138591        4.1801099419
 Au         0.0002432742        5.9114138522        4.1800068017
 Au         2.9561797164        0.0003820783        4.1801799314
 Au         2.9562114893        2.9553820714        4.1800768261
 Au         2.9562432730        5.9113820645        4.1799736859
 Au         5.9121797152        0.0003502906        4.1801468156
 Au         5.9122114881        2.9553502837        4.1800437103
 Au         5.9122432717        5.9113502769        4.1799405701
 Au         8.6701797140        0.0003206322        4.1801159180
 Au         8.6702114869        2.9553206253        4.1800128127
 Au         8.6702432706        5.9113206184        4.1799096725
 Au        11.6261797128        0.0002888445        4.1800828022
 Au        11.6262114857        2.9552888376        4.1799796969
 Au        11.6262432693        5.9112888307        4.1798765567
 Au         1.4782190257        1.4784708917        6.2701449143
 Au         1.4782507986        4.4334708849        6.2700418090
 Au         1.4782825823        7.3894708780        6.2699386688
 Au         4.4342190245        1.4784391041        6.2701117985
 Au         4.4342507974        4.4334390972        6.2700086932
 Au         4.4342825810        7.3894390903        6.2699055530
 Au         7.1922190233        1.4784094456        6.2700809009
 Au         7.1922507962        4.4334094387        6.2699777956
 Au         7.1922825798        7.3894094318        6.2698746553
 Au        10.1482190220        1.4783776579        6.2700477851
 Au        10.1482507949        4.4333776510        6.2699446798
 Au        10.1482825786        7.3893776441        6.2698415395
 Au        13.1042190208        1.4783458702        6.2700146693
 Au        13.1042507937        4.4333458633        6.2699115640
 Au        13.1042825774        7.3893458564        6.2698084237
 Au         0.0002265513        0.0005597121        8.3602130374
 Au         0.0002583242        2.9555597052        8.3601099321
 Au         0.0002901079        5.9115596983        8.3600067919
 Au         2.9562265501        0.0005279244        8.3601799216
 Au         2.9562583230        2.9555279175        8.3600768163
 Au         2.9562901066        5.9115279106        8.3599736761
 Au         5.9122265488        0.0004961367        8.3601468058
 Au         5.9122583217        2.9554961298        8.3600437005
 Au         5.9122901054        5.9114961229        8.3599405603
 Au         8.6702265477        0.0004664782        8.3601159082
 Au         8.6702583206        2.9554664713        8.3600128029
 Au         8.6702901042        5.9114664644        8.3599096626
 Au        11.6262265464        0.0004346905        8.3600827924
 Au        11.6262583193        2.9554346836        8.3599796871
 Au        11.6262901030        5.9114346767        8.3598765468
 Au         1.4782658593        1.4786167378       10.4501449045
 Au         1.4782976322        4.4336167309       10.4500417992
 Au         1.4783294159        7.3896167240       10.4499386590
 Au         4.4342658581        1.4785849501       10.4501117887
 Au         4.4342976310        4.4335849432       10.4500086834
 Au         4.4343294147        7.3895849363       10.4499055432
 Au         7.1922658569        1.4785552916       10.4500808911
 Au         7.1922976298        4.4335552847       10.4499777858
 Au         7.1923294135        7.3895552779       10.4498746455
 Au        10.1482658557        1.4785235039       10.4500477753
 Au        10.1482976286        4.4335234971       10.4499446700
 Au        10.1483294122        7.3895234902       10.4498415297
 Au        13.1042658544        1.4784917162       10.4500146595
 Au        13.1042976273        4.4334917094       10.4499115541
 Au        13.1043294110        7.3894917025       10.4498084139
  N         4.8556168299        5.9122781706       12.0318096020
  N         9.5283312897        5.9140851976       12.0338999721
  N         7.1923315837        5.9346107586       12.0399254094