     183
 i =       0, E =    -5729.7073676676
 Au         0.0003484178        0.0007027400        0.0005586290
 Au         0.0004317254        2.9557027219        0.0002882900
 Au         0.0005150611        5.9117027039        0.0000178595
 Au         2.9563484145        0.0006193937        0.0004718004
 Au         2.9564317221        2.9556193756        0.0002014614
 Au         2.9565150578        5.9116193575       -0.0000689691
 Au         5.9123484113        0.0005360473        0.0003849718
 Au         5.9124317188        2.9555360293        0.0001146328
 Au         5.9125150546        5.9115360112       -0.0001557977
 Au         8.6703484082        0.0004582837        0.0003039592
 Au         8.6704317158        2.9554582657        0.0000336202
 Au         8.6705150515        5.9114582476       -0.0002368103
 Au        11.6263484050        0.0003749374        0.0002171306
 Au        11.6264317125        2.9553749193       -0.0000532084
 Au        11.6265150483        5.9113749013       -0.0003236389
 Au         1.4784514822        1.4788522597        2.0903799866
 Au         1.4785347898        4.4338522417        2.0901096476
 Au         1.4786181255        7.3898522236        2.0898392171
 Au         4.4344514790        1.4787689134        2.0902931580
 Au         4.4345347865        4.4337688953        2.0900228190
 Au         4.4346181223        7.3897688773        2.0897523885
 Au         7.1924514759        1.4786911498        2.0902121454
 Au         7.1925347835        4.4336911317        2.0899418064
 Au         7.1926181192        7.3896911137        2.0896713759
 Au        10.1484514726        1.4786078034        2.0901253168
 Au        10.1485347802        4.4336077854        2.0898549778
 Au        10.1486181159        7.3896077673        2.0895845473
 Au        13.1044514694        1.4785244571        2.0900384882
 Au        13.1045347769        4.4335244390        2.0897681492
 Au        13.1046181127        7.3895244210        2.0894977187
 Au         0.0004712142        0.0010851438        4.1805586033
 Au         0.0005545217        2.9560851258        4.1802882643
 Au         0.0006378575        5.9120851077        4.1800178338
 Au         2.9564712109        0.0010017975        4.1804717747
 Au         2.9565545185        2.9560017794        4.1802014357
 Au         2.9566378542        5.9120017614        4.1799310052
 Au         5.9124712076        0.0009184511        4.1803849461
 Au         5.9125545152        2.9559184331        4.1801146071
 Au         5.9126378509        5.9119184150        4.1798441766
 Au         8.6704712046        0.0008406875        4.1803039334
 Au         8.6705545121        2.9558406695        4.1800335945
 Au         8.6706378479        5.9118406514        4.1797631640
 Au        11.6264712013        0.0007573412        4.1802171048
 Au        11.6265545089        2.9557573232        4.1799467659
 Au        11.6266378446        5.9117573051        4.1796763354
 Au         1.4785742786        1.4792346635        6.2703799609
 Au         1.4786575861        4.4342346455        6.2701096219
 Au         1.4787409219        7.3902346274        6.2698391914
 Au         4.4345742753        1.4791513172        6.2702931323
 Au         4.4346575829        4.4341512991        6.2700227933
 Au         4.4347409186        7.3901512811        6.2697523628
 Au         7.1925742723        1.4790735536        6.2702121196
 Au         7.1926575798        4.4340735355        6.2699417807
 Au         7.1927409156        7.3900735175        6.2696713502
 Au        10.1485742690        1.4789902073        6.2701252910
 Au        10.1486575766        4.4339901892        6.2698549521
 Au        10.1487409123        7.3899901711        6.2695845216
 Au        13.1045742657        1.4789068609        6.2700384624
 Au        13.1046575733        4.4339068429        6.2697681235
 Au        13.1047409090        7.3899068248        6.2694976930
 Au         0.0005940105        0.0014675477        8.3605585775
 Au         0.0006773181        2.9564675296        8.3602882385
 Au         0.0007606538        5.9124675115        8.3600178081
 Au         2.9565940073        0.0013842013        8.3604717489
 Au         2.9566773148        2.9563841833        8.3602014099
 Au         2.9567606506        5.9123841652        8.3599309795
 Au         5.9125940040        0.0013008550        8.3603849203
 Au         5.9126773116        2.9563008369        8.3601145813
 Au         5.9127606473        5.9123008189        8.3598441509
 Au         8.6705940010        0.0012230914        8.3603039077
 Au         8.6706773085        2.9562230733        8.3600335687
 Au         8.6707606443        5.9122230553        8.3597631383
 Au        11.6265939977        0.0011397450        8.3602170791
 Au        11.6266773052        2.9561397270        8.3599467401
 Au        11.6267606410        5.9121397089        8.3596763097
 Au         1.4786970750        1.4796170674       10.4503799351
 Au         1.4787803825        4.4346170493       10.4501095961
 Au         1.4788637183        7.3906170313       10.4498391657
 Au         4.4346970717        1.4795337210       10.4502931065
 Au         4.4347803792        4.4345337030       10.4500227675
 Au         4.4348637150        7.3905336849       10.4497523371
 Au         7.1926970686        1.4794559574       10.4502120939
 Au         7.1927803762        4.4344559394       10.4499417549
 Au         7.1928637119        7.3904559213       10.4496713245
 Au        10.1486970654        1.4793726111       10.4501252653
 Au        10.1487803729        4.4343725930       10.4498549263
 Au        10.1488637087        7.3903725750       10.4495844959
 Au        13.1046970621        1.4792892647       10.4500384367
 Au        13.1047803697        4.4342892467       10.4497680977
 Au        13.1048637054        7.3902892286       10.4494976673
  N         4.8559685213        5.9128915515       12.0318251763
  N         9.5288686312        5.9147099762       12.0337377301
  N         7.1928694021        5.9356013900       12.0398044258
  H        10.3425130776        5.9210871344       12.6513744490
  H         4.0574707891        5.9153969867       12.6712585965
  C         8.3718567065        5.9319986839       12.7132590868
  C         5.9995042553        5.9307145660       12.7643251182
  N         8.3081181398        5.9517194824       14.0746433921
  N         5.9307628886        5.9498905265       14.0996762164
  H         9.1552347136        5.9169164863       14.6385022878
  C         7.0795194190        5.9716451975       14.8283530853
  N         7.1841646265        5.9163677944       16.1147722323
  H         7.0294609362        6.5053438474       16.6911306498
 Au         7.2231338843        5.9364250220       21.0428043703
 Au         5.8884766074        7.2551394074       22.9917268682
 Au         8.7068988506        4.4365616606       22.9918981719
 Au         5.8883988255        4.4356394242       22.9919792760
 Au         8.7069766043        7.2550616438       22.9916458556
 Au         1.4791269210        1.4809556637       25.0823798451
 Au         1.4792102285        4.4359556457       25.0821095061
 Au         1.4792935643        7.3919556276       25.0818390756
 Au         4.4351269177        1.4808723174       25.0822930165
 Au         4.4352102253        4.4358722993       25.0820226775
 Au         4.4352935610        7.3918722813       25.0817522470
 Au         7.1931269147        1.4807945538       25.0822120039
 Au         7.1932102222        4.4357945357       25.0819416649
 Au         7.1932935580        7.3917945177       25.0816712344
 Au        10.1491269114        1.4807112074       25.0821251753
 Au        10.1492102190        4.4357111894       25.0818548363
 Au        10.1492935547        7.3917111713       25.0815844058
 Au        13.1051269081        1.4806278611       25.0820383466
 Au        13.1052102157        4.4356278430       25.0817680077
 Au        13.1052935514        7.3916278250       25.0814975772
 Au         0.0011466529        0.0031885478       27.1725584617
 Au         0.0012299605        2.9581885298       27.1722881228
 Au         0.0013132962        5.9141885117       27.1720176923
 Au         2.9571466497        0.0031052015       27.1724716331
 Au         2.9572299572        2.9581051834       27.1722012942
 Au         2.9573132930        5.9141051654       27.1719308637
 Au         5.9131466464        0.0030218552       27.1723848045
 Au         5.9132299540        2.9580218371       27.1721144656
 Au         5.9133132897        5.9140218190       27.1718440351
 Au         8.6711466433        0.0029440916       27.1723037919
 Au         8.6712299509        2.9579440735       27.1720334529
 Au         8.6713132867        5.9139440554       27.1717630225
 Au        11.6271466401        0.0028607452       27.1722169633
 Au        11.6272299476        2.9578607272       27.1719466243
 Au        11.6273132834        5.9138607091       27.1716761939
 Au         1.4792497174        1.4813380675       29.2623798193
 Au         1.4793330249        4.4363380495       29.2621094804
 Au         1.4794163607        7.3923380314       29.2618390499
 Au         4.4352497141        1.4812547212       29.2622929907
 Au         4.4353330216        4.4362547032       29.2620226518
 Au         4.4354163574        7.3922546851       29.2617522213
 Au         7.1932497110        1.4811769576       29.2622119781
 Au         7.1933330186        4.4361769396       29.2619416391
 Au         7.1934163543        7.3921769215       29.2616712087
 Au        10.1492497078        1.4810936113       29.2621251495
 Au        10.1493330153        4.4360935932       29.2618548105
 Au        10.1494163511        7.3920935752       29.2615843801
 Au        13.1052497045        1.4810102649       29.2620383209
 Au        13.1053330121        4.4360102469       29.2617679819
 Au        13.1054163478        7.3920102288       29.2614975515
 Au         0.0012694493        0.0035709517       31.3525584360
 Au         0.0013527569        2.9585709336       31.3522880970
 Au         0.0014360926        5.9145709155       31.3520176666
 Au         2.9572694460        0.0034876053       31.3524716074
 Au         2.9573527536        2.9584875873       31.3522012684
 Au         2.9574360893        5.9144875692       31.3519308380
 Au         5.9132694428        0.0034042590       31.3523847788
 Au         5.9133527503        2.9584042409       31.3521144398
 Au         5.9134360861        5.9144042229       31.3518440094
 Au         8.6712694397        0.0033264954       31.3523037662
 Au         8.6713527473        2.9583264773       31.3520334272
 Au         8.6714360830        5.9143264593       31.3517629967
 Au        11.6272694364        0.0032431490       31.3522169376
 Au        11.6273527440        2.9582431310       31.3519465986
 Au        11.6274360797        5.9142431129       31.3516761681
 Au         1.4793725137        1.4817204714       33.4423797936
 Au         1.4794558213        4.4367204533       33.4421094546
 Au         1.4795391570        7.3927204353       33.4418390242
 Au         4.4353725105        1.4816371250       33.4422929650
 Au         4.4354558180        4.4366371070       33.4420226260
 Au         4.4355391538        7.3926370889       33.4417521956
 Au         7.1933725074        1.4815593614       33.4422119524
 Au         7.1934558150        4.4365593434       33.4419416134
 Au         7.1935391507        7.3925593253       33.4416711830
 Au        10.1493725041        1.4814760151       33.4421251238
 Au        10.1494558117        4.4364759970       33.4418547848
 Au        10.1495391474        7.3924759790       33.4415843543
 Au        13.1053725009        1.4813926688       33.4420382952
 Au        13.1054558084        4.4363926507       33.4417679562
 Au        13.1055391442        7.3923926326       33.4414975257
     183
 i =       1, E =    -5729.7394390705
 Au         0.0003382878        0.0006823082        0.0005423872
 Au         0.0004191732        2.9556822907        0.0002799081
 Au         0.0005000860        5.9116822732        0.0000173403
 Au         2.9563382846        0.0006013851        0.0004580830
 Au         2.9564191700        2.9556013676        0.0001956040
 Au         2.9565000828        5.9116013501       -0.0000669638
 Au         5.9123382814        0.0005204620        0.0003737789
 Au         5.9124191668        2.9555204445        0.0001112999
 Au         5.9125000797        5.9115204270       -0.0001512679
 Au         8.6703382784        0.0004449594        0.0002951217
 Au         8.6704191639        2.9554449419        0.0000326427
 Au         8.6705000767        5.9114449243       -0.0002299252
 Au        11.6263382753        0.0003640363        0.0002108176
 Au        11.6264191607        2.9553640188       -0.0000516614
 Au        11.6265000735        5.9113640012       -0.0003142293
 Au         1.4784383556        1.4788274807        2.0903689387
 Au         1.4785192411        4.4338274632        2.0901064597
 Au         1.4786001539        7.3898274457        2.0898438918
 Au         4.4344383525        1.4787465576        2.0902846346
 Au         4.4345192379        4.4337465401        2.0900221556
 Au         4.4346001507        7.3897465226        2.0897595877
 Au         7.1924383495        1.4786710550        2.0902059774
 Au         7.1925192349        4.4336710375        2.0899434983
 Au         7.1926001477        7.3896710199        2.0896809305
 Au        10.1484383463        1.4785901319        2.0901216733
 Au        10.1485192318        4.4335901144        2.0898591942
 Au        10.1486001446        7.3895900968        2.0895966264
 Au        13.1044383432        1.4785092088        2.0900373691
 Au        13.1045192286        4.4335091913        2.0897748901
 Au        13.1046001414        7.3895091737        2.0895123223
 Au         0.0004575139        0.0010535939        4.1805423622
 Au         0.0005383993        2.9560535763        4.1802798832
 Au         0.0006193121        5.9120535588        4.1800173153
 Au         2.9564575107        0.0009726708        4.1804580581
 Au         2.9565383961        2.9559726533        4.1801955790
 Au         2.9566193090        5.9119726357        4.1799330112
 Au         5.9124575075        0.0008917477        4.1803737540
 Au         5.9125383930        2.9558917302        4.1801112749
 Au         5.9126193058        5.9118917126        4.1798487071
 Au         8.6704575046        0.0008162450        4.1802950967
 Au         8.6705383900        2.9558162275        4.1800326177
 Au         8.6706193028        5.9118162100        4.1797700499
 Au        11.6264575014        0.0007353219        4.1802107926
 Au        11.6265383868        2.9557353044        4.1799483136
 Au        11.6266192996        5.9117352869        4.1796857458
 Au         1.4785575818        1.4791987664        6.2703689137
 Au         1.4786384672        4.4341987489        6.2701064347
 Au         1.4787193800        7.3901987313        6.2698438668
 Au         4.4345575786        1.4791178433        6.2702846096
 Au         4.4346384640        4.4341178258        6.2700221306
 Au         4.4347193768        7.3901178082        6.2697595627
 Au         7.1925575756        1.4790423406        6.2702059524
 Au         7.1926384611        4.4340423231        6.2699434734
 Au         7.1927193739        7.3900423056        6.2696809055
 Au        10.1485575725        1.4789614175        6.2701216483
 Au        10.1486384579        4.4339614000        6.2698591692
 Au        10.1487193707        7.3899613825        6.2695966014
 Au        13.1045575693        1.4788804944        6.2700373442
 Au        13.1046384547        4.4338804769        6.2697748651
 Au        13.1047193675        7.3898804594        6.2695122973
 Au         0.0005767400        0.0014248795        8.3605423372
 Au         0.0006576254        2.9564248620        8.3602798582
 Au         0.0007385383        5.9124248445        8.3600172903
 Au         2.9565767368        0.0013439564        8.3604580331
 Au         2.9566576223        2.9563439389        8.3601955541
 Au         2.9567385351        5.9123439214        8.3599329862
 Au         5.9125767337        0.0012630333        8.3603737290
 Au         5.9126576191        2.9562630158        8.3601112500
 Au         5.9127385319        5.9122629983        8.3598486821
 Au         8.6705767307        0.0011875307        8.3602950718
 Au         8.6706576161        2.9561875131        8.3600325927
 Au         8.6707385289        5.9121874956        8.3597700249
 Au        11.6265767275        0.0011066076        8.3602107677
 Au        11.6266576130        2.9561065901        8.3599482886
 Au        11.6267385258        5.9121065725        8.3596857208
 Au         1.4786768079        1.4795700520       10.4503688887
 Au         1.4787576933        4.4345700345       10.4501064097
 Au         1.4788386061        7.3905700170       10.4498438418
 Au         4.4346768047        1.4794891289       10.4502845846
 Au         4.4347576902        4.4344891114       10.4500221056
 Au         4.4348386030        7.3904890939       10.4497595377
 Au         7.1926768018        1.4794136263       10.4502059274
 Au         7.1927576872        4.4344136087       10.4499434484
 Au         7.1928386000        7.3904135912       10.4496808805
 Au        10.1486767986        1.4793327032       10.4501216233
 Au        10.1487576840        4.4343326857       10.4498591443
 Au        10.1488385968        7.3903326681       10.4495965764
 Au        13.1046767954        1.4792517801       10.4500373192
 Au        13.1047576809        4.4342517626       10.4497748402
 Au        13.1048385937        7.3902517450       10.4495122723
  N         4.8559519918        5.9128627227       12.0318244443
  N         9.5288433763        5.9146806117       12.0337453554
  N         7.1928441247        5.9355548305       12.0398101120
  H        10.3409911395        5.9206581441       12.6543449228
  H         4.0583175365        5.9150826051       12.6731316344
  C         8.3735617423        5.9307712846       12.7212435303
  C         5.9998853812        5.9308132898       12.7754674914
  N         8.3085113658        5.9484020936       14.0712744364
  N         5.9290407659        5.9497384186       14.0926671121
  H         9.1558957281        5.9163023825       14.6391531106
  C         7.0794919011        5.9684177037       14.8405019078
  N         7.2136186366        5.8469942796       16.0336454565
  H         6.9834147044        6.5558255938       16.7589499222
 Au         7.2257176169        5.9363545158       21.0428100582
 Au         5.8862821673        7.2603396790       22.9917348093
 Au         8.7099836821        4.4364871818       22.9919011325
 Au         5.8862066468        4.4355626845       22.9919798786
 Au         8.7100591752        7.2602641763       22.9916561521
 Au         1.4790941564        1.4808697295       25.0823688013
 Au         1.4791750418        4.4358697119       25.0821063223
 Au         1.4792559546        7.3918696944       25.0818437544
 Au         4.4350941532        1.4807888064       25.0822844972
 Au         4.4351750387        4.4357887888       25.0820220182
 Au         4.4352559515        7.3917887713       25.0817594503
 Au         7.1930941503        1.4807133037       25.0822058400
 Au         7.1931750357        4.4357132862       25.0819433609
 Au         7.1932559485        7.3917132686       25.0816807931
 Au        10.1490941471        1.4806323806       25.0821215359
 Au        10.1491750325        4.4356323631       25.0818590568
 Au        10.1492559453        7.3916323455       25.0815964890
 Au        13.1050941439        1.4805514575       25.0820372317
 Au        13.1051750294        4.4355514400       25.0817747527
 Au        13.1052559422        7.3915514224       25.0815121849
 Au         0.0011133146        0.0030958426       27.1725422248
 Au         0.0011942001        2.9580958251       27.1722797458
 Au         0.0012751129        5.9140958075       27.1720171779
 Au         2.9571133115        0.0030149195       27.1724579207
 Au         2.9571941969        2.9580149020       27.1721954416
 Au         2.9572751097        5.9140148844       27.1719328738
 Au         5.9131133083        0.0029339964       27.1723736166
 Au         5.9131941937        2.9579339789       27.1721111375
 Au         5.9132751065        5.9139339613       27.1718485697
 Au         8.6711133053        0.0028584937       27.1722949593
 Au         8.6711941908        2.9578584762       27.1720324803
 Au         8.6712751036        5.9138584587       27.1717699125
 Au        11.6271133022        0.0027775706       27.1722106552
 Au        11.6271941876        2.9577775531       27.1719481762
 Au        11.6272751004        5.9137775356       27.1716856084
 Au         1.4792133825        1.4812410151       29.2623687763
 Au         1.4792942680        4.4362409976       29.2621062973
 Au         1.4793751808        7.3922409800       29.2618437294
 Au         4.4352133793        1.4811600920       29.2622844722
 Au         4.4352942648        4.4361600745       29.2620219932
 Au         4.4353751776        7.3921600569       29.2617594253
 Au         7.1932133764        1.4810845893       29.2622058150
 Au         7.1932942618        4.4360845718       29.2619433360
 Au         7.1933751746        7.3920845543       29.2616807681
 Au        10.1492133732        1.4810036663       29.2621215109
 Au        10.1492942587        4.4360036487       29.2618590318
 Au        10.1493751715        7.3920036312       29.2615964640
 Au        13.1052133700        1.4809227432       29.2620372068
 Au        13.1052942555        4.4359227256       29.2617747277
 Au        13.1053751683        7.3919227081       29.2615121599
 Au         0.0012325408        0.0034671282       31.3525421998
 Au         0.0013134262        2.9584671107       31.3522797208
 Au         0.0013943390        5.9144670932       31.3520171529
 Au         2.9572325376        0.0033862051       31.3524578957
 Au         2.9573134230        2.9583861876       31.3521954167
 Au         2.9573943358        5.9143861701       31.3519328488
 Au         5.9132325344        0.0033052821       31.3523735916
 Au         5.9133134199        2.9583052645       31.3521111126
 Au         5.9133943327        5.9143052470       31.3518485447
 Au         8.6712325315        0.0032297794       31.3522949344
 Au         8.6713134169        2.9582297619       31.3520324553
 Au         8.6713943297        5.9142297443       31.3517698875
 Au        11.6272325283        0.0031488563       31.3522106303
 Au        11.6273134137        2.9581488388       31.3519481512
 Au        11.6273943265        5.9141488212       31.3516855834
 Au         1.4793326087        1.4816123007       33.4423687513
 Au         1.4794134941        4.4366122832       33.4421062723
 Au         1.4794944069        7.3926122657       33.4418437045
 Au         4.4353326055        1.4815313777       33.4422844472
 Au         4.4354134909        4.4365313601       33.4420219682
 Au         4.4354944037        7.3925313426       33.4417594003
 Au         7.1933326025        1.4814558750       33.4422057900
 Au         7.1934134880        4.4364558575       33.4419433110
 Au         7.1934944008        7.3924558399       33.4416807431
 Au        10.1493325993        1.4813749519       33.4421214859
 Au        10.1494134848        4.4363749344       33.4418590069
 Au        10.1494943976        7.3923749168       33.4415964390
 Au        13.1053325962        1.4812940288       33.4420371818
 Au        13.1054134816        4.4362940113       33.4417747028
 Au        13.1054943944        7.3922939937       33.4415121349
     183
 i =       2, E =    -5729.7471003500
 Au         0.0003375839        0.0006808893        0.0005412612
 Au         0.0004183015        2.9556808718        0.0002793273
 Au         0.0004990464        5.9116808543        0.0000173048
 Au         2.9563375807        0.0006001341        0.0004571321
 Au         2.9564182983        2.9556001166        0.0001951983
 Au         2.9564990432        5.9116000991       -0.0000668243
 Au         5.9123375776        0.0005193789        0.0003730031
 Au         5.9124182952        2.9555193614        0.0001110692
 Au         5.9124990401        5.9115193439       -0.0001509533
 Au         8.6703375746        0.0004440329        0.0002945092
 Au         8.6704182922        2.9554440155        0.0000325754
 Au         8.6704990371        5.9114439980       -0.0002294472
 Au        11.6263375715        0.0003632778        0.0002103802
 Au        11.6264182891        2.9553632603       -0.0000515537
 Au        11.6264990340        5.9113632428       -0.0003135762
 Au         1.4784374440        1.4788257602        2.0903681729
 Au         1.4785181616        4.4338257427        2.0901062390
 Au         1.4785989065        7.3898257252        2.0898442165
 Au         4.4344374409        1.4787450050        2.0902840439
 Au         4.4345181585        4.4337449876        2.0900221100
 Au         4.4345989034        7.3897449701        2.0897600875
 Au         7.1924374379        1.4786696590        2.0902055500
 Au         7.1925181555        4.4336696416        2.0899436161
 Au         7.1925989004        7.3896696241        2.0896815936
 Au        10.1484374348        1.4785889039        2.0901214210
 Au        10.1485181524        4.4335888864        2.0898594871
 Au        10.1485988973        7.3895888689        2.0895974646
 Au        13.1044374316        1.4785081487        2.0900372920
 Au        13.1045181492        4.4335081312        2.0897753581
 Au        13.1045988941        7.3895081137        2.0895133355
 Au         0.0004565624        0.0010514038        4.1805412363
 Au         0.0005372800        2.9560513863        4.1802793024
 Au         0.0006180249        5.9120513688        4.1800172798
 Au         2.9564565593        0.0009706486        4.1804571072
 Au         2.9565372769        2.9559706312        4.1801951733
 Au         2.9566180218        5.9119706137        4.1799331508
 Au         5.9124565561        0.0008898935        4.1803729782
 Au         5.9125372737        2.9558898760        4.1801110443
 Au         5.9126180186        5.9118898585        4.1798490218
 Au         8.6704565531        0.0008145475        4.1802944843
 Au         8.6705372707        2.9558145300        4.1800325504
 Au         8.6706180157        5.9118145125        4.1797705279
 Au        11.6264565500        0.0007337923        4.1802103553
 Au        11.6265372676        2.9557337748        4.1799484214
 Au        11.6266180125        5.9117337573        4.1796863989
 Au         1.4785564226        1.4791962748        6.2703681480
 Au         1.4786371402        4.4341962573        6.2701062141
 Au         1.4787178851        7.3901962398        6.2698441916
 Au         4.4345564194        1.4791155196        6.2702840190
 Au         4.4346371370        4.4341155021        6.2700220851
 Au         4.4347178819        7.3901154846        6.2697600625
 Au         7.1925564164        1.4790401736        6.2702055251
 Au         7.1926371340        4.4340401561        6.2699435912
 Au         7.1927178790        7.3900401386        6.2696815687
 Au        10.1485564133        1.4789594184        6.2701213961
 Au        10.1486371309        4.4339594009        6.2698594622
 Au        10.1487178758        7.3899593834        6.2695974397
 Au        13.1045564101        1.4788786632        6.2700372670
 Au        13.1046371277        4.4338786457        6.2697753332
 Au        13.1047178726        7.3898786282        6.2695133106
 Au         0.0005755410        0.0014219184        8.3605412113
 Au         0.0006562586        2.9564219009        8.3602792774
 Au         0.0007370035        5.9124218834        8.3600172549
 Au         2.9565755378        0.0013411632        8.3604570823
 Au         2.9566562554        2.9563411457        8.3601951484
 Au         2.9567370003        5.9123411282        8.3599331259
 Au         5.9125755346        0.0012604080        8.3603729533
 Au         5.9126562522        2.9562603905        8.3601110194
 Au         5.9127369971        5.9122603730        8.3598489968
 Au         8.6705755317        0.0011850620        8.3602944594
 Au         8.6706562493        2.9561850445        8.3600325255
 Au         8.6707369942        5.9121850270        8.3597705030
 Au        11.6265755285        0.0011043068        8.3602103304
 Au        11.6266562461        2.9561042894        8.3599483965
 Au        11.6267369910        5.9121042719        8.3596863739
 Au         1.4786754011        1.4795667893       10.4503681231
 Au         1.4787561187        4.4345667718       10.4501061892
 Au         1.4788368636        7.3905667543       10.4498441667
 Au         4.4346753979        1.4794860341       10.4502839940
 Au         4.4347561155        4.4344860166       10.4500220602
 Au         4.4348368604        7.3904859991       10.4497600376
 Au         7.1926753950        1.4794106881       10.4502055002
 Au         7.1927561126        4.4344106706       10.4499435663
 Au         7.1928368575        7.3904106531       10.4496815438
 Au        10.1486753918        1.4793299329       10.4501213711
 Au        10.1487561094        4.4343299155       10.4498594373
 Au        10.1488368543        7.3903298980       10.4495974147
 Au        13.1046753886        1.4792491778       10.4500372421
 Au        13.1047561062        4.4342491603       10.4497753082
 Au        13.1048368511        7.3902491428       10.4495132857
  N         4.8559508445        5.9128607213       12.0318243939
  N         9.5288416238        5.9146785729       12.0337458847
  N         7.1928423707        5.9355515991       12.0398105068