     183
 i =       0, E =    -5729.6832400999
 Au         0.0002322785        0.0004684933        0.0003724193
 Au         0.0002878169        2.9554684813        0.0001921933
 Au         0.0003433741        5.9114684693        0.0000119064
 Au         2.9562322764        0.0004129291        0.0003145336
 Au         2.9562878147        2.9554129171        0.0001343076
 Au         2.9563433719        5.9114129050       -0.0000459794
 Au         5.9122322742        0.0003573649        0.0002566479
 Au         5.9122878126        2.9553573528        0.0000764219
 Au         5.9123433697        5.9113573408       -0.0001038651
 Au         8.6702322721        0.0003055225        0.0002026394
 Au         8.6702878105        2.9553055104        0.0000224135
 Au         8.6703433677        5.9113054984       -0.0001578735
 Au        11.6262322700        0.0002499583        0.0001447537
 Au        11.6262878083        2.9552499462       -0.0000354723
 Au        11.6263433655        5.9112499342       -0.0002157593
 Au         1.4783009882        1.4785681731        2.0902533244
 Au         1.4783565265        4.4335681611        2.0900730984
 Au         1.4784120837        7.3895681491        2.0898928114
 Au         4.4343009860        1.4785126089        2.0901954387
 Au         4.4343565243        4.4335125969        2.0900152127
 Au         4.4344120815        7.3895125848        2.0898349257
 Au         7.1923009839        1.4784607665        2.0901414302
 Au         7.1923565223        4.4334607545        2.0899612043
 Au         7.1924120795        7.3894607424        2.0897809173
 Au        10.1483009818        1.4784052023        2.0900835445
 Au        10.1483565201        4.4334051903        2.0899033185
 Au        10.1484120773        7.3894051782        2.0897230315
 Au        13.1043009796        1.4783496381        2.0900256588
 Au        13.1043565180        4.4333496260        2.0898454328
 Au        13.1044120751        7.3893496140        2.0896651458
 Au         0.0003141428        0.0007234292        4.1803724022
 Au         0.0003696812        2.9557234172        4.1801921762
 Au         0.0004252383        5.9117234051        4.1800118892
 Au         2.9563141406        0.0006678650        4.1803145164
 Au         2.9563696790        2.9556678530        4.1801342904
 Au         2.9564252361        5.9116678409        4.1799540035
 Au         5.9123141384        0.0006123008        4.1802566307
 Au         5.9123696768        2.9556122887        4.1800764047
 Au         5.9124252340        5.9116122767        4.1798961177
 Au         8.6703141364        0.0005604584        4.1802026223
 Au         8.6703696748        2.9555604463        4.1800223963
 Au         8.6704252319        5.9115604343        4.1798421093
 Au        11.6263141342        0.0005048941        4.1801447366
 Au        11.6263696726        2.9555048821        4.1799645106
 Au        11.6264252297        5.9115048701        4.1797842236
 Au         1.4783828524        1.4788231090        6.2702533072
 Au         1.4784383908        4.4338230970        6.2700730813
 Au         1.4784939479        7.3898230850        6.2698927943
 Au         4.4343828502        1.4787675448        6.2701954215
 Au         4.4344383886        4.4337675328        6.2700151955
 Au         4.4344939458        7.3897675207        6.2698349085
 Au         7.1923828482        1.4787157024        6.2701414131
 Au         7.1924383866        4.4337156904        6.2699611871
 Au         7.1924939437        7.3897156783        6.2697809001
 Au        10.1483828460        1.4786601382        6.2700835274
 Au        10.1484383844        4.4336601261        6.2699033014
 Au        10.1484939415        7.3896601141        6.2697230144
 Au        13.1043828438        1.4786045739        6.2700256416
 Au        13.1044383822        4.4336045619        6.2698454156
 Au        13.1044939394        7.3896045499        6.2696651287
 Au         0.0003960070        0.0009783651        8.3603723850
 Au         0.0004515454        2.9559783531        8.3601921590
 Au         0.0005071026        5.9119783410        8.3600118721
 Au         2.9563960048        0.0009228009        8.3603144993
 Au         2.9564515432        2.9559227888        8.3601342733
 Au         2.9565071004        5.9119227768        8.3599539863
 Au         5.9123960027        0.0008672366        8.3602566135
 Au         5.9124515410        2.9558672246        8.3600763876
 Au         5.9125070982        5.9118672126        8.3598961006
 Au         8.6703960006        0.0008153942        8.3602026051
 Au         8.6704515390        2.9558153822        8.3600223792
 Au         8.6705070962        5.9118153702        8.3598420922
 Au        11.6263959985        0.0007598300        8.3601447194
 Au        11.6264515368        2.9557598180        8.3599644934
 Au        11.6265070940        5.9117598059        8.3597842064
 Au         1.4784647166        1.4790780449       10.4502532901
 Au         1.4785202550        4.4340780329       10.4500730641
 Au         1.4785758122        7.3900780208       10.4498927771
 Au         4.4344647145        1.4790224807       10.4501954044
 Au         4.4345202528        4.4340224686       10.4500151784
 Au         4.4345758100        7.3900224566       10.4498348914
 Au         7.1924647124        1.4789706383       10.4501413959
 Au         7.1925202508        4.4339706262       10.4499611700
 Au         7.1925758080        7.3899706142       10.4497808830
 Au        10.1484647103        1.4789150741       10.4500835102
 Au        10.1485202486        4.4339150620       10.4499032842
 Au        10.1485758058        7.3899150500       10.4497229972
 Au        13.1044647081        1.4788595098       10.4500256245
 Au        13.1045202464        4.4338594978       10.4498453985
 Au        13.1045758036        7.3898594858       10.4496651115
  N         4.8557790142        5.9125610344       12.0318167842
  N         9.5285790875        5.9143733175       12.0338251534
  N         7.1925796014        5.9350675934       12.0398696172
  H        10.3346438533        5.9169845505       12.6628319904
  H         4.0607585237        5.9122644318       12.6767528540
  C         8.3725280474        5.9273250462       12.7193251419
  C         5.9993213109        5.9255618495       12.7737642159
  N         8.3129962852        5.9361975247       14.0765948088
  N         5.9319847607        5.9326471798       14.1003674675
  H         9.1616088295        5.9071544040       14.6393407703
  C         7.0876680652        5.9444104880       14.8284697966
  N         7.2033104526        5.8995019327       16.1120037406
  H         6.7902489682        6.2884818007       16.6406208686
 Au         7.2527559229        5.9356166813       21.0428695802
 Au         5.8633177382        7.3147596049       22.9918179121
 Au         8.7422659004        4.4357077738       22.9919321146
 Au         5.8632658836        4.4347596162       22.9919861840
 Au         8.7423177362        7.3147077625       22.9917639037
 Au         1.4787512807        1.4799704425       25.0822532300
 Au         1.4788068190        4.4349704304       25.0820730041
 Au         1.4788623762        7.3909704184       25.0818927171
 Au         4.4347512785        1.4799148783       25.0821953443
 Au         4.4348068169        4.4349148662       25.0820151183
 Au         4.4348623740        7.3909148542       25.0818348313
 Au         7.1927512764        1.4798630359       25.0821413359
 Au         7.1928068148        4.4348630238       25.0819611099
 Au         7.1928623720        7.3908630118       25.0817808229
 Au        10.1487512743        1.4798074716       25.0820834502
 Au        10.1488068126        4.4348074596       25.0819032242
 Au        10.1488623698        7.3908074476       25.0817229372
 Au        13.1047512721        1.4797519074       25.0820255644
 Au        13.1048068105        4.4347518954       25.0818453384
 Au        13.1048623676        7.3907518833       25.0816650515
 Au         0.0007644353        0.0021256986       27.1723723078
 Au         0.0008199737        2.9571256865       27.1721920818
 Au         0.0008755308        5.9131256745       27.1720117949
 Au         2.9567644331        0.0020701343       27.1723144221
 Au         2.9568199715        2.9570701223       27.1721341961
 Au         2.9568755286        5.9130701103       27.1719539091
 Au         5.9127644309        0.0020145701       27.1722565364
 Au         5.9128199693        2.9570145581       27.1720763104
 Au         5.9128755265        5.9130145460       27.1718960234
 Au         8.6707644289        0.0019627277       27.1722025279
 Au         8.6708199673        2.9569627157       27.1720223020
 Au         8.6708755244        5.9129627036       27.1718420150
 Au        11.6267644267        0.0019071635       27.1721446422
 Au        11.6268199651        2.9569071514       27.1719644162
 Au        11.6268755223        5.9129071394       27.1717841292
 Au         1.4788331449        1.4802253784       29.2622532129
 Au         1.4788886833        4.4352253663       29.2620729869
 Au         1.4789442404        7.3912253543       29.2618926999
 Au         4.4348331427        1.4801698141       29.2621953272
 Au         4.4348886811        4.4351698021       29.2620151012
 Au         4.4349442383        7.3911697901       29.2618348142
 Au         7.1928331407        1.4801179717       29.2621413188
 Au         7.1928886791        4.4351179597       29.2619610928
 Au         7.1929442362        7.3911179477       29.2617808058
 Au        10.1488331385        1.4800624075       29.2620834330
 Au        10.1488886769        4.4350623955       29.2619032070
 Au        10.1489442340        7.3910623834       29.2617229201
 Au        13.1048331363        1.4800068433       29.2620255473
 Au        13.1048886747        4.4350068312       29.2618453213
 Au        13.1049442319        7.3910068192       29.2616650343
 Au         0.0008462995        0.0023806344       31.3523722907
 Au         0.0009018379        2.9573806224       31.3521920647
 Au         0.0009573951        5.9133806104       31.3520117777
 Au         2.9568462974        0.0023250702       31.3523144049
 Au         2.9569018357        2.9573250582       31.3521341790
 Au         2.9569573929        5.9133250461       31.3519538920
 Au         5.9128462952        0.0022695060       31.3522565192
 Au         5.9129018335        2.9572694939       31.3520762932
 Au         5.9129573907        5.9132694819       31.3518960062
 Au         8.6708462931        0.0022176636       31.3522025108
 Au         8.6709018315        2.9572176515       31.3520222848
 Au         8.6709573887        5.9132176395       31.3518419978
 Au        11.6268462910        0.0021620994       31.3521446251
 Au        11.6269018293        2.9571620873       31.3519643991
 Au        11.6269573865        5.9131620753       31.3517841121
 Au         1.4789150091        1.4804803142       33.4422531957
 Au         1.4789705475        4.4354803022       33.4420729698
 Au         1.4790261047        7.3914802902       33.4418926828
 Au         4.4349150070        1.4804247500       33.4421953100
 Au         4.4349705453        4.4354247380       33.4420150840
 Au         4.4350261025        7.3914247259       33.4418347970
 Au         7.1929150049        1.4803729076       33.4421413016
 Au         7.1929705433        4.4353728956       33.4419610756
 Au         7.1930261005        7.3913728835       33.4417807886
 Au        10.1489150028        1.4803173434       33.4420834159
 Au        10.1489705411        4.4353173314       33.4419031899
 Au        10.1490260983        7.3913173193       33.4417229029
 Au        13.1049150006        1.4802617792       33.4420255301
 Au        13.1049705389        4.4352617671       33.4418453041
 Au        13.1050260961        7.3912617551       33.4416650172
     183
 i =       1, E =    -5729.7387812481
 Au         0.0002365295        0.0004770673        0.0003792350
 Au         0.0002930843        2.9554770550        0.0001957107
 Au         0.0003496582        5.9114770428        0.0000121243
 Au         2.9562365273        0.0004204862        0.0003202899
 Au         2.9562930821        2.9554204739        0.0001367656
 Au         2.9563496560        5.9114204617       -0.0000468209
 Au         5.9122365251        0.0003639051        0.0002613448
 Au         5.9122930798        2.9553638928        0.0000778205
 Au         5.9123496538        5.9113638805       -0.0001057660
 Au         8.6702365230        0.0003111139        0.0002063480
 Au         8.6702930778        2.9553111016        0.0000228236
 Au         8.6703496517        5.9113110894       -0.0001607628
 Au        11.6262365208        0.0002545328        0.0001474029
 Au        11.6262930756        2.9552545205       -0.0000361215
 Au        11.6263496495        5.9112545083       -0.0002197079
 Au         1.4783064966        1.4785785713        2.0902579605
 Au         1.4783630514        4.4335785591        2.0900744362
 Au         1.4784196253        7.3895785468        2.0898908498
 Au         4.4343064944        1.4785219902        2.0901990154
 Au         4.4343630491        4.4335219780        2.0900154911
 Au         4.4344196231        7.3895219657        2.0898319046
 Au         7.1923064923        1.4784691991        2.0901440186
 Au         7.1923630471        4.4334691868        2.0899604943
 Au         7.1924196210        7.3894691745        2.0897769078
 Au        10.1483064901        1.4784126179        2.0900850735
 Au        10.1483630448        4.4334126057        2.0899015491
 Au        10.1484196188        7.3894125934        2.0897179627
 Au        13.1043064878        1.4783560368        2.0900261284
 Au        13.1043630426        4.4333560246        2.0898426040
 Au        13.1044196166        7.3893560123        2.0896590176
 Au         0.0003198919        0.0007366688        4.1803792175
 Au         0.0003764467        2.9557366565        4.1801956932
 Au         0.0004330206        5.9117366443        4.1800121068
 Au         2.9563198897        0.0006800877        4.1803202724
 Au         2.9563764445        2.9556800754        4.1801367481
 Au         2.9564330184        5.9116800631        4.1799531617
 Au         5.9123198875        0.0006235065        4.1802613273
 Au         5.9123764423        2.9556234943        4.1800778030
 Au         5.9124330162        5.9116234820        4.1798942166
 Au         8.6703198854        0.0005707154        4.1802063305
 Au         8.6703764402        2.9555707031        4.1800228062
 Au         8.6704330141        5.9115706909        4.1798392198
 Au        11.6263198832        0.0005141343        4.1801473854
 Au        11.6263764380        2.9555141220        4.1799638611
 Au        11.6264330119        5.9115141097        4.1797802746
 Au         1.4783898590        1.4788381728        6.2702579430
 Au         1.4784464138        4.4338381606        6.2700744187
 Au         1.4785029877        7.3898381483        6.2698908323
 Au         4.4343898568        1.4787815917        6.2701989979
 Au         4.4344464116        4.4337815795        6.2700154736
 Au         4.4345029855        7.3897815672        6.2698318872
 Au         7.1923898547        1.4787288005        6.2701440011
 Au         7.1924464095        4.4337287883        6.2699604768
 Au         7.1925029834        7.3897287760        6.2697768904
 Au        10.1483898525        1.4786722194        6.2700850560
 Au        10.1484464073        4.4336722072        6.2699015317
 Au        10.1485029812        7.3896721949        6.2697179452
 Au        13.1043898503        1.4786156383        6.2700261109
 Au        13.1044464051        4.4336156261        6.2698425866
 Au        13.1045029790        7.3896156138        6.2696590001
 Au         0.0004032544        0.0009962703        8.3603792001
 Au         0.0004598092        2.9559962580        8.3601956758
 Au         0.0005163831        5.9119962458        8.3600120893
 Au         2.9564032522        0.0009396892        8.3603202550
 Au         2.9564598070        2.9559396769        8.3601367306
 Au         2.9565163809        5.9119396646        8.3599531442
 Au         5.9124032500        0.0008831080        8.3602613099
 Au         5.9124598047        2.9558830958        8.3600777855
 Au         5.9125163787        5.9118830835        8.3598941991
 Au         8.6704032479        0.0008303169        8.3602063130
 Au         8.6704598027        2.9558303046        8.3600227887
 Au         8.6705163766        5.9118302924        8.3598392023
 Au        11.6264032457        0.0007737358        8.3601473679
 Au        11.6264598005        2.9557737235        8.3599638436
 Au        11.6265163744        5.9117737112        8.3597802572
 Au         1.4784732215        1.4790977743       10.4502579256
 Au         1.4785297763        4.4340977621       10.4500744013
 Au         1.4785863502        7.3900977498       10.4498908148
 Au         4.4344732193        1.4790411932       10.4501989805
 Au         4.4345297740        4.4340411810       10.4500154561
 Au         4.4345863480        7.3900411687       10.4498318697
 Au         7.1924732172        1.4789884020       10.4501439836
 Au         7.1925297720        4.4339883898       10.4499604593
 Au         7.1925863459        7.3899883775       10.4497768729
 Au        10.1484732150        1.4789318209       10.4500850385
 Au        10.1485297697        4.4339318087       10.4499015142
 Au        10.1485863437        7.3899317964       10.4497179278
 Au        13.1044732127        1.4788752398       10.4500260934
 Au        13.1045297675        4.4338752276       10.4498425691
 Au        13.1045863415        7.3898752153       10.4496589827
  N         4.8557859506        5.9125731320       12.0318170913
  N         9.5285896854        5.9143856399       12.0338219535
  N         7.1925902088        5.9350871315       12.0398672310
  H        10.3343976014        5.9170691602       12.6637785617
  H         4.0610239440        5.9123583470       12.6774778709
  C         8.3732697159        5.9265086817       12.7245317314
  C         5.9994972594        5.9265327810       12.7812370950
  N         8.3126247392        5.9341527149       14.0750011481
  N         5.9303443576        5.9353821910       14.0946043675
  H         9.1614453891        5.9078107048       14.6398235715
  C         7.0851437056        5.9443187784       14.8392159617
  N         7.3099969736        5.8182885149       15.9838547032
  H         6.6963574771        6.3796464142       16.7612024375
 Au         7.2516716906        5.9356462684       21.0428671934
 Au         5.8642386087        7.3125773735       22.9918145797
 Au         8.7409713879        4.4357390279       22.9919308723
 Au         5.8641858051        4.4347918191       22.9919859312
 Au         8.7410241724        7.3125245823       22.9917595829
 Au         1.4787650299        1.4800065038       25.0822578644
 Au         1.4788215847        4.4350064915       25.0820743401
 Au         1.4788781586        7.3910064792       25.0818907537
 Au         4.4347650277        1.4799499226       25.0821989193
 Au         4.4348215825        4.4349499104       25.0820153950
 Au         4.4348781564        7.3909498981       25.0818318086
 Au         7.1927650256        1.4798971315       25.0821439225
 Au         7.1928215804        4.4348971192       25.0819603982
 Au         7.1928781543        7.3908971070       25.0817768118
 Au        10.1487650234        1.4798405504       25.0820849774
 Au        10.1488215782        4.4348405381       25.0819014531
 Au        10.1488781521        7.3908405258       25.0817178666
 Au        13.1047650212        1.4797839692       25.0820260323
 Au        13.1048215760        4.4347839570       25.0818425080
 Au        13.1048781499        7.3907839447       25.0816589215
 Au         0.0007784253        0.0021646012       27.1723791215
 Au         0.0008349801        2.9571645889       27.1721955972
 Au         0.0008915540        5.9131645767       27.1720120107
 Au         2.9567784231        0.0021080201       27.1723201764
 Au         2.9568349779        2.9571080078       27.1721366520
 Au         2.9568915518        5.9131079956       27.1719530656
 Au         5.9127784209        0.0020514390       27.1722612313
 Au         5.9128349756        2.9570514267       27.1720777069
 Au         5.9128915496        5.9130514145       27.1718941205
 Au         8.6707784188        0.0019986478       27.1722062344
 Au         8.6708349736        2.9569986355       27.1720227101
 Au         8.6708915475        5.9129986233       27.1718391237
 Au        11.6267784166        0.0019420667       27.1721472893
 Au        11.6268349714        2.9569420544       27.1719637650
 Au        11.6268915453        5.9129420422       27.1717801786
 Au         1.4788483924        1.4802661053       29.2622578470
 Au         1.4789049472        4.4352660930       29.2620743226
 Au         1.4789615211        7.3912660807       29.2618907362
 Au         4.4348483902        1.4802095241       29.2621989019
 Au         4.4349049449        4.4352095119       29.2620153775
 Au         4.4349615189        7.3912094996       29.2618317911
 Au         7.1928483881        1.4801567330       29.2621439050
 Au         7.1929049429        4.4351567207       29.2619603807
 Au         7.1929615168        7.3911567085       29.2617767943
 Au        10.1488483859        1.4801001519       29.2620849599
 Au        10.1489049407        4.4351001396       29.2619014356
 Au        10.1489615146        7.3911001273       29.2617178492
 Au        13.1048483837        1.4800435707       29.2620260148
 Au        13.1049049384        4.4350435585       29.2618424905
 Au        13.1049615124        7.3910435462       29.2616589041
 Au         0.0008617878        0.0024242027       31.3523791040
 Au         0.0009183425        2.9574241904       31.3521955797
 Au         0.0009749165        5.9134241782       31.3520119933
 Au         2.9568617855        0.0023676216       31.3523201589
 Au         2.9569183403        2.9573676093       31.3521366346
 Au         2.9569749142        5.9133675971       31.3519530481
 Au         5.9128617833        0.0023110405       31.3522612138
 Au         5.9129183381        2.9573110282       31.3520776895
 Au         5.9129749120        5.9133110159       31.3518941030
 Au         8.6708617812        0.0022582493       31.3522062170
 Au         8.6709183360        2.9572582370       31.3520226926
 Au         8.6709749100        5.9132582248       31.3518391062
 Au        11.6268617790        0.0022016682       31.3521472719
 Au        11.6269183338        2.9572016559       31.3519637475
 Au        11.6269749077        5.9132016437       31.3517801611
 Au         1.4789317548        1.4805257067       33.4422578295
 Au         1.4789883096        4.4355256945       33.4420743052
 Au         1.4790448835        7.3915256822       33.4418907188
 Au         4.4349317526        1.4804691256       33.4421988844
 Au         4.4349883074        4.4354691134       33.4420153601
 Au         4.4350448813        7.3914691011       33.4418317736
 Au         7.1929317505        1.4804163345       33.4421438876
 Au         7.1929883053        4.4354163222       33.4419603633
 Au         7.1930448792        7.3914163099       33.4417767768
 Au        10.1489317483        1.4803597533       33.4420849425
 Au        10.1489883031        4.4353597411       33.4419014181
 Au        10.1490448770        7.3913597288       33.4417178317
 Au        13.1049317461        1.4803031722       33.4420259974
 Au        13.1049883009        4.4353031600       33.4418424730
 Au        13.1050448748        7.3913031477       33.4416588866
     183
 i =       2, E =    -5729.7650559854
 Au         0.0002338732        0.0004717096        0.0003749760
 Au         0.0002897928        2.9554716975        0.0001935128
 Au         0.0003457314        5.9114716854        0.0000119881
 Au         2.9562338710        0.0004157639        0.0003166929
 Au         2.9562897906        2.9554157518        0.0001352296
 Au         2.9563457292        5.9114157397       -0.0000462950
 Au         5.9122338688        0.0003598183        0.0002584098
 Au         5.9122897884        2.9553598061        0.0000769465
 Au         5.9123457270        5.9113597940       -0.0001045782
 Au         8.6702338667        0.0003076199        0.0002040306
 Au         8.6702897864        2.9553076078        0.0000225673
 Au         8.6703457250        5.9113075957       -0.0001589574
 Au        11.6262338645        0.0002516743        0.0001457475
 Au        11.6262897842        2.9552516621       -0.0000357158
 Au        11.6263457228        5.9112516500       -0.0002172405
 Au         1.4783030545        1.4785720738        2.0902550635
 Au         1.4783589741        4.4335720616        2.0900736002
 Au         1.4784149127        7.3895720495        2.0898920756
 Au         4.4343030523        1.4785161281        2.0901967804
 Au         4.4343589719        4.4335161160        2.0900153171
 Au         4.4344149105        7.3895161038        2.0898337924
 Au         7.1923030503        1.4784639298        2.0901424012
 Au         7.1923589699        4.4334639176        2.0899609379
 Au         7.1924149085        7.3894639055        2.0897794132
 Au        10.1483030481        1.4784079841        2.0900841181
 Au        10.1483589677        4.4334079720        2.0899026548
 Au        10.1484149063        7.3894079598        2.0897211301
 Au        13.1043030459        1.4783520384        2.0900258349
 Au        13.1043589655        4.4333520263        2.0898443717
 Au        13.1044149041        7.3893520142        2.0896628470
 Au         0.0003162994        0.0007283957        4.1803749588
 Au         0.0003722191        2.9557283836        4.1801934955
 Au         0.0004281577        5.9117283715        4.1800119708
 Au         2.9563162972        0.0006724500        4.1803166756
 Au         2.9563722169        2.9556724379        4.1801352124
 Au         2.9564281555        5.9116724258        4.1799536877
 Au         5.9123162950        0.0006165043        4.1802583925
 Au         5.9123722147        2.9556164922        4.1800769292
 Au         5.9124281533        5.9116164801        4.1798954046
 Au         8.6703162930        0.0005643060        4.1802040133
 Au         8.6703722126        2.9555642939        4.1800225501
 Au         8.6704281512        5.9115642818        4.1798410254
 Au        11.6263162908        0.0005083603        4.1801457302
 Au        11.6263722105        2.9555083482        4.1799642669
 Au        11.6264281490        5.9115083361        4.1797827422
 Au         1.4783854807        1.4788287598        6.2702550462
 Au         1.4784414004        4.4338287477        6.2700735830
 Au         1.4784973390        7.3898287356        6.2698920583
 Au         4.4343854786        1.4787728141        6.2701967631
 Au         4.4344413982        4.4337728020        6.2700152998
 Au         4.4344973368        7.3897727899        6.2698337752
 Au         7.1923854765        1.4787206158        6.2701423839
 Au         7.1924413962        4.4337206037        6.2699609206
 Au         7.1924973347        7.3897205916        6.2697793960
 Au        10.1483854743        1.4786646701        6.2700841008
 Au        10.1484413940        4.4336646580        6.2699026375
 Au        10.1484973325        7.3896646459        6.2697211128
 Au        13.1043854721        1.4786087245        6.2700258177
 Au        13.1044413918        4.4336087123        6.2698443544
 Au        13.1044973303        7.3896087002        6.2696628297
 Au         0.0003987257        0.0009850818        8.3603749415
 Au         0.0004546453        2.9559850696        8.3601934782
 Au         0.0005105839        5.9119850575        8.3600119536
 Au         2.9563987235        0.0009291361        8.3603166584
 Au         2.9564546431        2.9559291240        8.3601351951
 Au         2.9565105817        5.9119291118        8.3599536704
 Au         5.9123987213        0.0008731904        8.3602583752
 Au         5.9124546409        2.9558731783        8.3600769120
 Au         5.9125105795        5.9118731661        8.3598953873
 Au         8.6703987193        0.0008209921        8.3602039961
 Au         8.6704546389        2.9558209800        8.3600225328
 Au         8.6705105775        5.9118209678        8.3598410081
 Au        11.6263987171        0.0007650464        8.3601457129
 Au        11.6264546367        2.9557650343        8.3599642497
 Au        11.6265105753        5.9117650222        8.3597827250
 Au         1.4784679070        1.4790854459       10.4502550290
 Au         1.4785238267        4.4340854338       10.4500735657
 Au         1.4785797652        7.3900854216       10.4498920410
 Au         4.4344679048        1.4790295002       10.4501967458
 Au         4.4345238245        4.4340294881       10.4500152826
 Au         4.4345797630        7.3900294760       10.4498337579
 Au         7.1924679028        1.4789773019       10.4501423667
 Au         7.1925238224        4.4339772898       10.4499609034
 Au         7.1925797610        7.3899772777       10.4497793787
 Au        10.1484679006        1.4789213562       10.4500840835
 Au        10.1485238202        4.4339213441       10.4499026202
 Au        10.1485797588        7.3899213320       10.4497210956
 Au        13.1044678984        1.4788654105       10.4500258004
 Au        13.1045238180        4.4338653984       10.4498443371
 Au        13.1045797566        7.3898653863       10.4496628124
  N         4.8557816162        5.9125655725       12.0318168994
  N         9.5285830630        5.9143779399       12.0338239530
  N         7.1925835805        5.9350749226       12.0398687221