         0      -5729.782607896      -5729.745463880      -5729.683240100      -5729.707367668      -5729.731023975      -5729.715866054      -5729.772184664          0.658110732          0.658110732          0.658110732          0.658110732          1.218823630          1.218823630
         1      -5729.782607896      -5729.777380880      -5729.738781248      -5729.739439071      -5729.732882122      -5729.751840679      -5729.772184664          0.706059208          0.705466864          0.698370505          0.724039051          1.239591363          1.258991180
         2      -5729.782607896      -5729.780363622      -5729.765055985      -5729.747100350      -5729.733177910      -5729.761310525      -5729.772184664          0.711322103          0.645661215          0.694292058          0.743318234          1.233784392          1.231973662
         3      -5729.782607896      -5729.781094530      -5729.768981387      -5729.748469465      -5729.733694727      -5729.762757677      -5729.772184664          0.711358082          0.616510526          0.702192121          0.777079354          1.201124324          1.231136532
         4      -5729.782607895      -5729.781492107      -5729.770158246      -5729.749129894      -5729.734066810      -5729.763626125      -5729.772184664          0.707568068          0.634085140          0.696035159          0.798660275          1.181932843          1.231806299
         5      -5729.782607896      -5729.781778747      -5729.770881698      -5729.749707560      -5729.734416838      -5729.764341843      -5729.772184664          0.705477735          0.647140719          0.705260974          0.815347165          1.168469861          1.236244332
         6      -5729.782607896      -5729.782007184      -5729.771423541      -5729.750158932      -5729.734771815      -5729.764971825      -5729.772184664          0.704623834          0.655528357          0.703286627          0.828165017          1.156953614          1.233738693
         7      -5729.782607896      -5729.782423393      -5729.772207341      -5729.751064518      -5729.735351341      -5729.766036751      -5729.772184664          0.702569516          0.682921105          0.713373695          0.844775466          1.147570775          1.238708292
         8      -5729.782607896      -5729.782513219      -5729.772488489      -5729.751027477      -5729.735226787      -5729.766315479      -5729.772184664          0.703403320          0.684307030          0.720591331          0.825549808          1.162923121          1.237057309
         9      -5729.782607896      -5729.783634355      -5729.773498662      -5729.749832686      -5729.734310999      -5729.769014016      -5729.772184664          0.737185552          0.801039039          0.842063160          0.650585890          1.438881857          1.280426835
        10      -5729.782607896      -5729.783729312      -5729.774880723      -5729.750277784      -5729.734382402      -5729.769325102      -5729.772184664          0.739966693          0.794813308          0.836917243          0.655183880          1.431934165          1.281139317
        11      -5729.782607896      -5729.783751557      -5729.774943900      -5729.750588018      -5729.734407661      -5729.769294259      -5729.772184664          0.742780253          0.796105956          0.826654801          0.661926594          1.426102289          1.285778419
        12      -5729.782607896      -5729.783797283      -5729.774580057      -5729.753605393      -5729.734362549      -5729.767907202      -5729.772184664          0.780739487          0.807690144          0.722704614          0.742029735          1.356435870          1.356647872
        13      -5729.782607896      -5729.783851293      -5729.774864326      -5729.753829756      -5729.734513416      -5729.768105503      -5729.772184664          0.782947058          0.806279665          0.720785444          0.745694441          1.357086785          1.364341707
        14      -5729.782607896      -5729.783879506      -5729.775027677      -5729.753763231      -5729.734532926      -5729.768151549      -5729.772184664          0.785653265          0.803921256          0.727191439          0.742105930          1.354946437          1.371388054
        15      -5729.782607896      -5729.783900497      -5729.775147752      -5729.753714145      -5729.734604450      -5729.768147159      -5729.772184664          0.788812210          0.802012922          0.732700711          0.742058301          1.355268803          1.378340454
        16      -5729.782607896      -5729.783963023      -5729.775381896      -5729.753338824      -5729.734497792      -5729.768133365      -5729.772184664          0.797529076          0.797105372          0.760872399          0.735258683          1.356595834          1.389940956
        17      -5729.782607896      -5729.783975247      -5729.775389334      -5729.753435350      -5729.734692009      -5729.768150330      -5729.772184664          0.798022561          0.797459476          0.759154764          0.739747248          1.359020186          1.391801427
        18      -5729.782607896      -5729.783988342      -5729.775392500      -5729.753451376      -5729.734707629      -5729.768155856      -5729.772184664          0.798689927          0.798109959          0.760129740          0.740444848          1.360016541          1.393964285
        19      -5729.782607896      -5729.784089457      -5729.774421306      -5729.753602105      -5729.734959879      -5729.767199807      -5729.772184664          0.833962060          0.831783577          0.831491136          0.778936569          1.417215388          1.457710026
        20      -5729.782607896      -5729.784182639      -5729.774561566      -5729.753823385      -5729.734987049      -5729.767768097      -5729.772184664          0.833700163          0.830387977          0.826982904          0.782090456          1.418485314          1.449078146
        21      -5729.782607896      -5729.784191970      -5729.774579525      -5729.753997943      -5729.734996565      -5729.767840529      -5729.772184664          0.833778577          0.830917333          0.827235634          0.784177834          1.419020003          1.446691276
        22      -5729.782607896      -5729.784197957      -5729.774559637      -5729.754149316      -5729.735006824      -5729.767875953      -5729.772184664          0.833965038          0.831438881          0.824140364          0.787270201          1.419979635          1.444569684
        23      -5729.782607896      -5729.784220477      -5729.774239868      -5729.754998378      -5729.735049712      -5729.767899949      -5729.772184664          0.836337350          0.836407919          0.812090194          0.806451630          1.426256959          1.439201332
        24      -5729.782607896      -5729.784222578      -5729.774289678      -5729.755025875      -5729.735056883      -5729.767898388      -5729.772184664          0.836713293          0.836875754          0.813306944          0.807287496          1.427043475          1.439751119
        25      -5729.782607896      -5729.784223545      -5729.774284659      -5729.755050956      -5729.735060571      -5729.767893021      -5729.772184664          0.837091326          0.836861605          0.814457038          0.807275032          1.427296062          1.440071907
        26      -5729.782607896      -5729.784226222      -5729.774126177      -5729.755306148      -5729.735049912      -5729.767800679      -5729.772184664          0.841197687          0.837992359          0.824723729          0.812182994          1.432614841          1.443240899
        27      -5729.782607896      -5729.784227338      -5729.774122864      -5729.755333495      -5729.735082324      -5729.767799744      -5729.772184664          0.841419309          0.838138127          0.825037901          0.811163011          1.431876459          1.443349025
        28      -5729.782607896      -5729.784228626      -5729.774101307      -5729.755390386      -5729.735080739      -5729.767787444      -5729.772184664          0.841926827          0.838638713          0.824924470          0.813358847          1.432928706          1.443836161
        29      -5729.782607896      -5729.784229007      -5729.774010950      -5729.755538109      -5729.735096763      -5729.767732341      -5729.772184664          0.843449280          0.840296589          0.825961508          0.815194506          1.433628392          1.445746759
        30      -5729.782607896      -5729.784229511      -5729.773998885      -5729.755567767      -5729.735100535      -5729.767722753      -5729.772184664          0.843842334          0.840871333          0.826297644          0.816750281          1.434675301          1.446661030
        31      -5729.782607896      -5729.784229438      -5729.773984167      -5729.755591728      -5729.735103828      -5729.767711728      -5729.772184664          0.844194966          0.841290895          0.826886846          0.816349120          1.434636657          1.447282575
        32      -5729.782607896      -5729.784228002      -5729.773908038      -5729.755713993      -5729.735116941      -5729.767659851      -5729.772184664          0.845836827          0.843067491          0.828451771          0.819170607          1.436677340          1.449748575
        33      -5729.782607896      -5729.784207290      -5729.773629532      -5729.756094320      -5729.735077193      -5729.767457742      -5729.772184664          0.853111760          0.848518464          0.837306650          0.829159811          1.447704872          1.458724322
        34      -5729.782607896      -5729.784206758      -5729.773625896      -5729.756109370      -5729.735146439      -5729.767451225      -5729.772184664          0.853271390          0.848645064          0.837700451          0.827553030          1.446830455          1.459118474
        35      -5729.782607896      -5729.784205830      -5729.773618006      -5729.756128426      -5729.735149184      -5729.767441223      -5729.772184664          0.853521476          0.848886988          0.837744325          0.828096038          1.447229155          1.459668364
        36      -5729.782607896      -5729.784189938      -5729.773466502      -5729.756333630      -5729.735161256      -5729.767308331      -5729.772184664          0.856803235          0.852325914          0.839080189          0.832631473          1.451658457          1.465976682
        37      -5729.782607896      -5729.784188089      -5729.773468004      -5729.756356775      -5729.735160225      -5729.767298808      -5729.772184664          0.857236276          0.852684035          0.839858640          0.834297156          1.453365407          1.466238820
        38      -5729.782607896      -5729.784186998      -5729.773463368      -5729.756365912      -5729.735168230      -5729.767291731      -5729.772184664          0.857435937          0.852815855          0.840291707          0.833670275          1.453389483          1.466520483
        39      -5729.782607896      -5729.784184440      -5729.773450642      -5729.756388153      -5729.735172120      -5729.767275578      -5729.772184664          0.857885416          0.853130845          0.841149935          0.834458411          1.454549409          1.467142306
        40      -5729.782607895      -5729.784168539      -5729.773362331      -5729.756508574      -5729.735160345      -5729.767175530      -5729.772184664          0.860390205          0.854952169          0.845505612          0.838916221          1.460529356          1.471058537
        41      -5729.782607895      -5729.784167747      -5729.773357777      -5729.756519186      -5729.735183564      -5729.767169677      -5729.772184664          0.860509665          0.855110464          0.845317817          0.837947559          1.460173254          1.471305278
        42      -5729.782607896      -5729.784166328      -5729.773350022      -5729.756532657      -5729.735185259      -5729.767159733      -5729.772184664          0.860702389          0.855345967          0.845374763          0.838399128          1.460616398          1.471684945
        43      -5729.782607896      -5729.784059403      -5729.772828042      -5729.756894061      -5729.735209919      -5729.766590382      -5729.772184664          0.872575578          0.867024958          0.858233515          0.854278172          1.481409320          1.492098993
        44      -5729.782607896      -5729.784062260      -5729.772873322      -5729.757130022      -5729.735218900      -5729.766604619      -5729.772184664          0.872597948          0.866645517          0.855783014          0.855147690          1.482192000          1.492276536
        45      -5729.782607896      -5729.784060306      -5729.772925758      -5729.757137563      -5729.735229941      -5729.766596760      -5729.772184664          0.872664565          0.865888093          0.858595081          0.855377958          1.483719595          1.492600328
        46      -5729.782607896      -5729.784058205      -5729.772934617      -5729.757170585      -5729.735234378      -5729.766584017      -5729.772184664          0.872684958          0.865702163          0.858931868          0.856196029          1.485139403          1.492874749
        47      -5729.782607896      -5729.784057405      -5729.772932391      -5729.757178330      -5729.735234984      -5729.766577407      -5729.772184664          0.872669873          0.865807658          0.859550578          0.856113969          1.485342470          1.492999625
        48      -5729.782607896      -5729.784055222      -5729.772925696      -5729.757189732      -5729.735235766      -5729.766559149      -5729.772184664          0.872637307          0.866112564          0.859626265          0.856698333          1.486187983          1.493400613
        49      -5729.782607896      -5729.784054839      -5729.772924705      -5729.757193260      -5729.735236347      -5729.766556008      -5729.772184664          0.872637078          0.866144217          0.859914896          0.856552329          1.486195514          1.493493757
        50      -5729.782607896      -5729.784033067      -5729.772863851      -5729.757292517      -5729.735227173      -5729.766387181      -5729.772184664          0.872674266          0.868458675          0.862371013          0.860686221          1.492583609          1.497860826
        51      -5729.782607896      -5729.784032129      -5729.772862838      -5729.757301870      -5729.735244270      -5729.766381871      -5729.772184664          0.872711874          0.868455576          0.862869068          0.859762060          1.492212737          1.498014167
        52      -5729.782607896      -5729.784025417      -5729.772853098      -5729.757324780      -5729.735243477      -5729.766344115      -5729.772184664          0.872970649          0.868542928          0.863427156          0.860833634          1.493225059          1.499076664
        53      -5729.782607896      -5729.784021892      -5729.772847328      -5729.757335957      -5729.735246416      -5729.766323923      -5729.772184664          0.873094983          0.868612524          0.863615607          0.860481897          1.493413814          1.499641740
        54      -5729.782607895      -5729.784020611      -5729.772845214      -5729.757340666      -5729.735247773      -5729.766316510      -5729.772184664          0.873129479          0.868646051          0.863654103          0.860984179          1.493815877          1.499841153
        55      -5729.782607896      -5729.784019242      -5729.772842965      -5729.757344949      -5729.735248137      -5729.766308567      -5729.772184664          0.873165472          0.868678359          0.863797506          0.860892474          1.493968041          1.500048666
        56      -5729.782607896      -5729.784018442      -5729.772841631      -5729.757347661      -5729.735248515      -5729.766303941      -5729.772184664          0.873185738          0.868698006          0.863853455          0.861047947          1.494146591          1.500166914
        57      -5729.782607896      -5729.783995516      -5729.772803597      -5729.757420275      -5729.735253167      -5729.766173268      -5729.772184664          0.873797735          0.869277773          0.865718282          0.863142822          1.498161943          1.503496539
        58      -5729.782607896      -5729.783991391      -5729.772796569      -5729.757433352      -5729.735252235      -5729.766148843      -5729.772184664          0.873839378          0.869477730          0.865871191          0.863146142          1.498595468          1.504077268
        59      -5729.782607896      -5729.783990418      -5729.772794958      -5729.757436666      -5729.735254515      -5729.766143145      -5729.772184664          0.873853179          0.869521290          0.865832142          0.863621471          1.498912494          1.504225840
        60      -5729.782607896      -5729.783985859      -5729.772787687      -5729.757448756      -5729.735253043      -5729.766116830      -5729.772184664          0.873916465          0.869698594          0.866053766          0.863534191          1.499419925          1.504885719
        61      -5729.782607896      -5729.783984910      -5729.772786232      -5729.757451685      -5729.735255669      -5729.766111546      -5729.772184664          0.873929000          0.869727746          0.866057092          0.864013788          1.499739446          1.505004923
        62      -5729.782607896      -5729.783981417      -5729.772780977      -5729.757460239      -5729.735255436      -5729.766091982      -5729.772184664          0.873976305          0.869827538          0.866291542          0.863980257          1.500154792          1.505456709
        63      -5729.782607896      -5729.783980180      -5729.772779133      -5729.757463657      -5729.735256457      -5729.766085110      -5729.772184664          0.873992976          0.869864441          0.866307125          0.864388388          1.500477266          1.505618331
        64      -5729.782607896      -5729.783978294      -5729.772776373      -5729.757468003      -5729.735256479      -5729.766074614      -5729.772184664          0.874017941          0.869916524          0.866435751          0.864254494          1.500648478          1.505864089
        65      -5729.782607896      -5729.783976842      -5729.772774253      -5729.757471777      -5729.735257059      -5729.766066606      -5729.772184664          0.874036613          0.869956167          0.866476542          0.864617195          1.500976770          1.506048348
        66      -5729.782607896      -5729.783976026      -5729.772773081      -5729.757473608      -5729.735257397      -5729.766062098      -5729.772184664          0.874046972          0.869977587          0.866533012          0.864550815          1.501046384          1.506152279
        67      -5729.782607896      -5729.783982880      -5729.772782968      -5729.757457235      -5729.735256111      -5729.766099996      -5729.772184664          0.873964164          0.869795727          0.866187781          0.864099026          1.500032202          1.505279153
        68      -5729.782607896      -5729.783923895      -5729.772697753      -5729.757594976      -5729.735258878      -5729.765780508      -5729.772184664          0.874993476          0.871579078          0.869127740          0.868586265          1.508944332          1.512815946
        69      -5729.782607896      -5729.783923538      -5729.772697462      -5729.757595707      -5729.735266155      -5729.765777877      -5729.772184664          0.874985022          0.871550985          0.869231516          0.867881598          1.508746444          1.512883668
        70      -5729.782607896      -5729.783927920      -5729.772699673      -5729.757558250      -5729.735198656      -5729.765837036      -5729.772184664          0.875117117          0.871904878          0.868438485          0.865700081          1.505707801          1.511449606
        71      -5729.782607896      -5729.783938931      -5729.772713179      -5729.757563332      -5729.735262724      -5729.765868749      -5729.772184664          0.875065838          0.871672112          0.868365916          0.867286256          1.506406269          1.511339868
        72      -5729.782607896      -5729.783941710      -5729.772717111      -5729.757565529      -5729.735263391      -5729.765871935      -5729.772184664          0.875014920          0.871380657          0.868567375          0.867438214          1.506680427          1.511220293
        73      -5729.782607896      -5729.783940551      -5729.772715878      -5729.757567683      -5729.735263521      -5729.765865620      -5729.772184664          0.875005510          0.871313896          0.868732380          0.867128545          1.506738987          1.511244968
        74      -5729.782607896      -5729.783939165      -5729.772714286      -5729.757570569      -5729.735263950      -5729.765858237      -5729.772184664          0.875002680          0.871320302          0.868784220          0.867414609          1.507025436          1.511362939
        75      -5729.782607896      -5729.783937505      -5729.772712382      -5729.757573460      -5729.735263973      -5729.765849441      -5729.772184664          0.875002810          0.871337898          0.868897805          0.867228256          1.507137219          1.511519073
        76      -5729.782607896      -5729.783933249      -5729.772707373      -5729.757581272      -5729.735264634      -5729.765826814      -5729.772184664          0.875003922          0.871415442          0.869034602          0.867592151          1.507808935          1.511966940
        77      -5729.782607895      -5729.783931861      -5729.772705825      -5729.757583768      -5729.735264863      -5729.765819588      -5729.772184664          0.875007429          0.871439319          0.869101546          0.867452744          1.507889349          1.512102622
        78      -5729.782607896      -5729.783930325      -5729.772704111      -5729.757586863      -5729.735265225      -5729.765811566      -5729.772184664          0.875009632          0.871466093          0.869132034          0.867747932          1.508161357          1.512261781
        79      -5729.782607896      -5729.783928243      -5729.772701823      -5729.757590430      -5729.735265069      -5729.765800716      -5729.772184664          0.875012598          0.871494665          0.869226794          0.867588788          1.508300968          1.512471065
        80      -5729.782607895      -5729.783927077      -5729.772700547      -5729.757592768      -5729.735265761      -5729.765794684      -5729.772184664          0.875013886          0.871511750          0.869236240          0.867895187          1.508539970          1.512588064
        81      -5729.782607896      -5729.783924847      -5729.772698141      -5729.757596469      -5729.735265680      -5729.765783143      -5729.772184664          0.875016593          0.871540249          0.869330966          0.867773920          1.508708553          1.512809247
        82      -5729.782607896      -5729.783923646      -5729.772696849      -5729.757598766      -5729.735266260      -5729.765776970      -5729.772184664          0.875017487          0.871555605          0.869341368          0.868058211          1.508941234          1.512926114
        83      -5729.782607895      -5729.783922833      -5729.772695987      -5729.757600065      -5729.735266445      -5729.765772786      -5729.772184664          0.875018081          0.871565133          0.869375046          0.868014160          1.509002265          1.513005427
        84      -5729.782607896      -5729.783929897      -5729.772703488      -5729.757588118      -5729.735265411      -5729.765809119      -5729.772184664          0.875015910          0.871481214          0.869170034          0.867665996          1.508173778          1.512317971
        85      -5729.782607896      -5729.783871739      -5729.772641872      -5729.757687686      -5729.735205847      -5729.765517792      -5729.772184664          0.875292670          0.872387216          0.870597702          0.872398626          1.515650725          1.518015066
        86      -5729.782607896      -5729.783872151      -5729.772641857      -5729.757687714      -5729.735273288      -5729.765515237      -5729.772184664          0.875273014          0.872352947          0.870850836          0.870460839          1.514911994          1.518061618
        87      -5729.782607896      -5729.783870262      -5729.772640412      -5729.757688930      -5729.735273498      -5729.765505598      -5729.772184664          0.875238138          0.872287337          0.870949576          0.870513979          1.515128058          1.518161761
        88      -5729.782607896      -5729.783869170      -5729.772639557      -5729.757689622      -5729.735273541      -5729.765500184      -5729.772184664          0.875227637          0.872276419          0.870994975          0.870430382          1.515198512          1.518229543
        89      -5729.782607896      -5729.783867732      -5729.772638442      -5729.757690747      -5729.735273746      -5729.765493343      -5729.772184664          0.875215080          0.872274211          0.871011597          0.870559497          1.515375730          1.518324853
        90      -5729.782607896      -5729.783862406      -5729.772634335      -5729.757694163      -5729.735272413      -5729.765467978      -5729.772184664          0.875161926          0.872254451          0.871169670          0.870265435          1.515720223          1.518680982
        91      -5729.782607896      -5729.783861610      -5729.772633704      -5729.757695150      -5729.735274372      -5729.765464207      -5729.772184664          0.875152769          0.872250699          0.871147479          0.870613715          1.515921464          1.518729372
        92      -5729.782607896      -5729.783853589      -5729.772627487      -5729.757701056      -5729.735274273      -5729.765426245      -5729.772184664          0.875062940          0.872224459          0.871321617          0.870511974          1.516533219          1.519237916
        93      -5729.782607896      -5729.783852672      -5729.772626767      -5729.757702069      -5729.735275197      -5729.765421882      -5729.772184664          0.875051185          0.872226193          0.871299549          0.870787223          1.516709263          1.519296968
        94      -5729.782607896      -5729.783850380      -5729.772625013      -5729.757703699      -5729.735275190      -5729.765411114      -5729.772184664          0.875022604          0.872221172          0.871345474          0.870667254          1.516832280          1.519437256
        95      -5729.782607896      -5729.783848807      -5729.772623811      -5729.757705125      -5729.735275389      -5729.765403781      -5729.772184664          0.875002343          0.872216465          0.871336709          0.870913234          1.517041950          1.519530033
        96      -5729.782607896      -5729.783848079      -5729.772623264      -5729.757705570      -5729.735275643      -5729.765400381      -5729.772184664          0.874992988          0.872214024          0.871358067          0.870811901          1.517054444          1.519573454
        97      -5729.782607896      -5729.783845917      -5729.772621633      -5729.757707188      -5729.735275835      -5729.765390319      -5729.772184664          0.874965323          0.872208163          0.871381389          0.870835537          1.517217478          1.519700224
        98      -5729.782607896      -5729.783840259      -5729.772617406      -5729.757711400      -5729.735276334      -5729.765364111      -5729.772184664          0.874892494          0.872188449          0.871428528          0.870966307          1.517663395          1.520027075
        99      -5729.782607896      -5729.783837807      -5729.772615616      -5729.757712977      -5729.735276387      -5729.765352844      -5729.772184664          0.874859487          0.872177890          0.871467083          0.870873060          1.517790858          1.520163944
       100      -5729.782607896      -5729.783835559      -5729.772613978      -5729.757714765      -5729.735276289      -5729.765342593      -5729.772184664          0.874828703          0.872168691          0.871451277          0.871167474          1.518051530          1.520284472
       101      -5729.782607896      -5729.783834864      -5729.772613484      -5729.757715082      -5729.735276815      -5729.765339419      -5729.772184664          0.874819143          0.872164469          0.871477844          0.871014348          1.518036689          1.520322743
       102      -5729.782607896      -5729.783831512      -5729.772611083      -5729.757717232      -5729.735277049      -5729.765324191      -5729.772184664          0.874773619          0.872146218          0.871509997          0.871001573          1.518246206          1.520501706
       103      -5729.782607895      -5729.783836805      -5729.772614859      -5729.757713464      -5729.735274423      -5729.765348118      -5729.772184664          0.874851109          0.872173431          0.871527877          0.870630520          1.517772429          1.520230362
       104      -5729.782607896      -5729.783836004      -5729.772614264      -5729.757714492      -5729.735276717      -5729.765344502      -5729.772184664          0.874839211          0.872172472          0.871476587          0.871014929          1.517971179          1.520269992