 # Version information for this restart file 
 # current date 2024-01-11 00:22:59.211
 # current working dir /gpfs/home/cahart/transport/melamine/au_from-h2/ci-neb/ts2/dft_leads-sz_tip-dzvp_surf-dzvp_kpoints-2-4-20_replicas-7
 # Program compiled at                              Thu 21 Sep 19:20:17 BST 2023
 # Program compiled on                                           hx1-c12-login-1
 # Program compiled for                                                    local
 # Source code revision number                                       git:5518aa6
 &GLOBAL
   EXTENDED_FFT_LENGTHS  T
   PRINT_LEVEL  MEDIUM
   PROJECT_NAME 2_dft_wfn-r-0
   OUTPUT_FILE_NAME 2_dft_wfn-r-0.out
   RUN_TYPE  BAND
 &END GLOBAL
 &MOTION
   &CONSTRAINT
     &FIXED_ATOMS
       LIST  1..93 104..183
     &END FIXED_ATOMS
   &END CONSTRAINT
   &BAND
     NPROC_REP  64
     BAND_TYPE  CI-NEB
     NUMBER_OF_REPLICA  7
     K_SPRING     5.0000000000000003E-02
     &CI_NEB
       NSTEPS_IT  5
     &END CI_NEB
     &OPTIMIZE_BAND
       OPT_TYPE  DIIS
       &DIIS
         MAX_STEPS  1000
       &END DIIS
     &END OPTIMIZE_BAND
     &REPLICA
       &COORD
             0.0000000000000000E+00    0.0000000000000000E+00    0.0000000000000000E+00
             0.0000000000000000E+00    2.9550000000000143E+00    0.0000000000000000E+00
             0.0000000000000000E+00    5.9110000000000182E+00    0.0000000000000000E+00
             2.9560000000000106E+00    0.0000000000000000E+00    0.0000000000000000E+00
             2.9560000000000106E+00    2.9550000000000143E+00    0.0000000000000000E+00
             2.9560000000000106E+00    5.9110000000000182E+00    0.0000000000000000E+00
             5.9120000000000212E+00    0.0000000000000000E+00    0.0000000000000000E+00
             5.9120000000000212E+00    2.9550000000000143E+00    0.0000000000000000E+00
             5.9120000000000212E+00    5.9110000000000182E+00    0.0000000000000000E+00
             8.6700000000000337E+00    0.0000000000000000E+00    0.0000000000000000E+00
             8.6700000000000337E+00    2.9550000000000143E+00    0.0000000000000000E+00
             8.6700000000000337E+00    5.9110000000000182E+00    0.0000000000000000E+00
             1.1626000000000033E+01    0.0000000000000000E+00    0.0000000000000000E+00
             1.1626000000000033E+01    2.9550000000000143E+00    0.0000000000000000E+00
             1.1626000000000033E+01    5.9110000000000182E+00    0.0000000000000000E+00
             1.4780000000000053E+00    1.4780000000000053E+00    2.0900000000000092E+00
             1.4780000000000053E+00    4.4330000000000149E+00    2.0900000000000092E+00
             1.4780000000000053E+00    7.3890000000000242E+00    2.0900000000000092E+00
             4.4340000000000135E+00    1.4780000000000053E+00    2.0900000000000092E+00
             4.4340000000000135E+00    4.4330000000000149E+00    2.0900000000000092E+00
             4.4340000000000135E+00    7.3890000000000242E+00    2.0900000000000092E+00
             7.1920000000000224E+00    1.4780000000000053E+00    2.0900000000000092E+00
             7.1920000000000224E+00    4.4330000000000149E+00    2.0900000000000092E+00
             7.1920000000000224E+00    7.3890000000000242E+00    2.0900000000000092E+00
             1.0148000000000039E+01    1.4780000000000053E+00    2.0900000000000092E+00
             1.0148000000000039E+01    4.4330000000000149E+00    2.0900000000000092E+00
             1.0148000000000039E+01    7.3890000000000242E+00    2.0900000000000092E+00
             1.3104000000000040E+01    1.4780000000000053E+00    2.0900000000000092E+00
             1.3104000000000040E+01    4.4330000000000149E+00    2.0900000000000092E+00
             1.3104000000000040E+01    7.3890000000000242E+00    2.0900000000000092E+00
             0.0000000000000000E+00    0.0000000000000000E+00    4.1800000000000184E+00
             0.0000000000000000E+00    2.9550000000000143E+00    4.1800000000000184E+00
             0.0000000000000000E+00    5.9110000000000182E+00    4.1800000000000184E+00
             2.9560000000000106E+00    0.0000000000000000E+00    4.1800000000000184E+00
             2.9560000000000106E+00    2.9550000000000143E+00    4.1800000000000184E+00
             2.9560000000000106E+00    5.9110000000000182E+00    4.1800000000000184E+00
             5.9120000000000212E+00    0.0000000000000000E+00    4.1800000000000184E+00
             5.9120000000000212E+00    2.9550000000000143E+00    4.1800000000000184E+00
             5.9120000000000212E+00    5.9110000000000182E+00    4.1800000000000184E+00
             8.6700000000000337E+00    0.0000000000000000E+00    4.1800000000000184E+00
             8.6700000000000337E+00    2.9550000000000143E+00    4.1800000000000184E+00
             8.6700000000000337E+00    5.9110000000000182E+00    4.1800000000000184E+00
             1.1626000000000033E+01    0.0000000000000000E+00    4.1800000000000184E+00
             1.1626000000000033E+01    2.9550000000000143E+00    4.1800000000000184E+00
             1.1626000000000033E+01    5.9110000000000182E+00    4.1800000000000184E+00
             1.4780000000000053E+00    1.4780000000000053E+00    6.2700000000000191E+00
             1.4780000000000053E+00    4.4330000000000149E+00    6.2700000000000191E+00
             1.4780000000000053E+00    7.3890000000000242E+00    6.2700000000000191E+00
             4.4340000000000135E+00    1.4780000000000053E+00    6.2700000000000191E+00
             4.4340000000000135E+00    4.4330000000000149E+00    6.2700000000000191E+00
             4.4340000000000135E+00    7.3890000000000242E+00    6.2700000000000191E+00
             7.1920000000000224E+00    1.4780000000000053E+00    6.2700000000000191E+00
             7.1920000000000224E+00    4.4330000000000149E+00    6.2700000000000191E+00
             7.1920000000000224E+00    7.3890000000000242E+00    6.2700000000000191E+00
             1.0148000000000039E+01    1.4780000000000053E+00    6.2700000000000191E+00
             1.0148000000000039E+01    4.4330000000000149E+00    6.2700000000000191E+00
             1.0148000000000039E+01    7.3890000000000242E+00    6.2700000000000191E+00
             1.3104000000000040E+01    1.4780000000000053E+00    6.2700000000000191E+00
             1.3104000000000040E+01    4.4330000000000149E+00    6.2700000000000191E+00
             1.3104000000000040E+01    7.3890000000000242E+00    6.2700000000000191E+00
             0.0000000000000000E+00    0.0000000000000000E+00    8.3600000000000367E+00
             0.0000000000000000E+00    2.9550000000000143E+00    8.3600000000000367E+00
             0.0000000000000000E+00    5.9110000000000182E+00    8.3600000000000367E+00
             2.9560000000000106E+00    0.0000000000000000E+00    8.3600000000000367E+00
             2.9560000000000106E+00    2.9550000000000143E+00    8.3600000000000367E+00
             2.9560000000000106E+00    5.9110000000000182E+00    8.3600000000000367E+00
             5.9120000000000212E+00    0.0000000000000000E+00    8.3600000000000367E+00
             5.9120000000000212E+00    2.9550000000000143E+00    8.3600000000000367E+00
             5.9120000000000212E+00    5.9110000000000182E+00    8.3600000000000367E+00
             8.6700000000000337E+00    0.0000000000000000E+00    8.3600000000000367E+00
             8.6700000000000337E+00    2.9550000000000143E+00    8.3600000000000367E+00
             8.6700000000000337E+00    5.9110000000000182E+00    8.3600000000000367E+00
             1.1626000000000033E+01    0.0000000000000000E+00    8.3600000000000367E+00
             1.1626000000000033E+01    2.9550000000000143E+00    8.3600000000000367E+00
             1.1626000000000033E+01    5.9110000000000182E+00    8.3600000000000367E+00
             1.4780000000000053E+00    1.4780000000000053E+00    1.0450000000000033E+01
             1.4780000000000053E+00    4.4330000000000149E+00    1.0450000000000033E+01
             1.4780000000000053E+00    7.3890000000000242E+00    1.0450000000000033E+01
             4.4340000000000135E+00    1.4780000000000053E+00    1.0450000000000033E+01
             4.4340000000000135E+00    4.4330000000000149E+00    1.0450000000000033E+01
             4.4340000000000135E+00    7.3890000000000242E+00    1.0450000000000033E+01
             7.1920000000000224E+00    1.4780000000000053E+00    1.0450000000000033E+01
             7.1920000000000224E+00    4.4330000000000149E+00    1.0450000000000033E+01
             7.1920000000000224E+00    7.3890000000000242E+00    1.0450000000000033E+01
             1.0148000000000039E+01    1.4780000000000053E+00    1.0450000000000033E+01
             1.0148000000000039E+01    4.4330000000000149E+00    1.0450000000000033E+01
             1.0148000000000039E+01    7.3890000000000242E+00    1.0450000000000033E+01
             1.3104000000000040E+01    1.4780000000000053E+00    1.0450000000000033E+01
             1.3104000000000040E+01    4.4330000000000149E+00    1.0450000000000033E+01
             1.3104000000000040E+01    7.3890000000000242E+00    1.0450000000000033E+01
             4.8554000000000128E+00    5.9119000000000170E+00    1.2031800000000047E+01
             9.5280000000000324E+00    5.9137000000000199E+00    1.2034000000000052E+01
             7.1920000000000224E+00    5.9340000000000241E+00    1.2040000000000038E+01
             1.0318905404800043E+01    5.9087793826000210E+00    1.2685747073200037E+01
             4.0673339928000170E+00    5.9059993220000280E+00    1.2687741368900037E+01
             8.3738707293000356E+00    5.9179777707000190E+00    1.2731457252200041E+01
             5.9989554222000194E+00    5.9152564166000206E+00    1.2792642411200045E+01
             8.3227525762000329E+00    5.9051536095000206E+00    1.4080497642100054E+01
             5.9344285049000192E+00    5.8981604865000179E+00    1.4101749969600057E+01
             9.1743570613000376E+00    5.8876302392000248E+00    1.4641017735300055E+01
             7.1039653577000248E+00    5.8899410689000211E+00    1.4828703219100067E+01
             7.2416021047000267E+00    5.8657702092000141E+00    1.6106466757300062E+01
             6.3118250323000149E+00    5.8547577071000205E+00    1.6539601306200073E+01
             7.3120000000000243E+00    5.9340000000000241E+00    2.1043000000000077E+01
             5.8130000000000166E+00    7.4340000000000268E+00    2.2992000000000079E+01
             8.8130000000000166E+00    4.4340000000000135E+00    2.2992000000000079E+01
             5.8130000000000166E+00    4.4330000000000149E+00    2.2992000000000079E+01
             8.8130000000000166E+00    7.4340000000000268E+00    2.2992000000000079E+01
             1.4780000000000053E+00    1.4780000000000053E+00    2.5082000000000093E+01
             1.4780000000000053E+00    4.4330000000000149E+00    2.5082000000000093E+01
             1.4780000000000053E+00    7.3890000000000242E+00    2.5082000000000093E+01
             4.4340000000000135E+00    1.4780000000000053E+00    2.5082000000000093E+01
             4.4340000000000135E+00    4.4330000000000149E+00    2.5082000000000093E+01
             4.4340000000000135E+00    7.3890000000000242E+00    2.5082000000000093E+01
             7.1920000000000224E+00    1.4780000000000053E+00    2.5082000000000093E+01
             7.1920000000000224E+00    4.4330000000000149E+00    2.5082000000000093E+01
             7.1920000000000224E+00    7.3890000000000242E+00    2.5082000000000093E+01
             1.0148000000000039E+01    1.4780000000000053E+00    2.5082000000000093E+01
             1.0148000000000039E+01    4.4330000000000149E+00    2.5082000000000093E+01
             1.0148000000000039E+01    7.3890000000000242E+00    2.5082000000000093E+01
             1.3104000000000040E+01    1.4780000000000053E+00    2.5082000000000093E+01
             1.3104000000000040E+01    4.4330000000000149E+00    2.5082000000000093E+01
             1.3104000000000040E+01    7.3890000000000242E+00    2.5082000000000093E+01
             0.0000000000000000E+00    0.0000000000000000E+00    2.7172000000000089E+01
             0.0000000000000000E+00    2.9550000000000143E+00    2.7172000000000089E+01
             0.0000000000000000E+00    5.9110000000000182E+00    2.7172000000000089E+01
             2.9560000000000106E+00    0.0000000000000000E+00    2.7172000000000089E+01
             2.9560000000000106E+00    2.9550000000000143E+00    2.7172000000000089E+01
             2.9560000000000106E+00    5.9110000000000182E+00    2.7172000000000089E+01
             5.9120000000000212E+00    0.0000000000000000E+00    2.7172000000000089E+01
             5.9120000000000212E+00    2.9550000000000143E+00    2.7172000000000089E+01
             5.9120000000000212E+00    5.9110000000000182E+00    2.7172000000000089E+01
             8.6700000000000337E+00    0.0000000000000000E+00    2.7172000000000089E+01
             8.6700000000000337E+00    2.9550000000000143E+00    2.7172000000000089E+01
             8.6700000000000337E+00    5.9110000000000182E+00    2.7172000000000089E+01
             1.1626000000000033E+01    0.0000000000000000E+00    2.7172000000000089E+01
             1.1626000000000033E+01    2.9550000000000143E+00    2.7172000000000089E+01
             1.1626000000000033E+01    5.9110000000000182E+00    2.7172000000000089E+01
             1.4780000000000053E+00    1.4780000000000053E+00    2.9262000000000100E+01
             1.4780000000000053E+00    4.4330000000000149E+00    2.9262000000000100E+01
             1.4780000000000053E+00    7.3890000000000242E+00    2.9262000000000100E+01
             4.4340000000000135E+00    1.4780000000000053E+00    2.9262000000000100E+01
             4.4340000000000135E+00    4.4330000000000149E+00    2.9262000000000100E+01
             4.4340000000000135E+00    7.3890000000000242E+00    2.9262000000000100E+01
             7.1920000000000224E+00    1.4780000000000053E+00    2.9262000000000100E+01
             7.1920000000000224E+00    4.4330000000000149E+00    2.9262000000000100E+01
             7.1920000000000224E+00    7.3890000000000242E+00    2.9262000000000100E+01
             1.0148000000000039E+01    1.4780000000000053E+00    2.9262000000000100E+01
             1.0148000000000039E+01    4.4330000000000149E+00    2.9262000000000100E+01
             1.0148000000000039E+01    7.3890000000000242E+00    2.9262000000000100E+01
             1.3104000000000040E+01    1.4780000000000053E+00    2.9262000000000100E+01
             1.3104000000000040E+01    4.4330000000000149E+00    2.9262000000000100E+01
             1.3104000000000040E+01    7.3890000000000242E+00    2.9262000000000100E+01
             0.0000000000000000E+00    0.0000000000000000E+00    3.1352000000000121E+01
             0.0000000000000000E+00    2.9550000000000143E+00    3.1352000000000121E+01
             0.0000000000000000E+00    5.9110000000000182E+00    3.1352000000000121E+01
             2.9560000000000106E+00    0.0000000000000000E+00    3.1352000000000121E+01
             2.9560000000000106E+00    2.9550000000000143E+00    3.1352000000000121E+01
             2.9560000000000106E+00    5.9110000000000182E+00    3.1352000000000121E+01
             5.9120000000000212E+00    0.0000000000000000E+00    3.1352000000000121E+01
             5.9120000000000212E+00    2.9550000000000143E+00    3.1352000000000121E+01
             5.9120000000000212E+00    5.9110000000000182E+00    3.1352000000000121E+01
             8.6700000000000337E+00    0.0000000000000000E+00    3.1352000000000121E+01
             8.6700000000000337E+00    2.9550000000000143E+00    3.1352000000000121E+01
             8.6700000000000337E+00    5.9110000000000182E+00    3.1352000000000121E+01
             1.1626000000000033E+01    0.0000000000000000E+00    3.1352000000000121E+01
             1.1626000000000033E+01    2.9550000000000143E+00    3.1352000000000121E+01
             1.1626000000000033E+01    5.9110000000000182E+00    3.1352000000000121E+01
             1.4780000000000053E+00    1.4780000000000053E+00    3.3442000000000100E+01
             1.4780000000000053E+00    4.4330000000000149E+00    3.3442000000000100E+01
             1.4780000000000053E+00    7.3890000000000242E+00    3.3442000000000100E+01
             4.4340000000000135E+00    1.4780000000000053E+00    3.3442000000000100E+01
             4.4340000000000135E+00    4.4330000000000149E+00    3.3442000000000100E+01
             4.4340000000000135E+00    7.3890000000000242E+00    3.3442000000000100E+01
             7.1920000000000224E+00    1.4780000000000053E+00    3.3442000000000100E+01
             7.1920000000000224E+00    4.4330000000000149E+00    3.3442000000000100E+01
             7.1920000000000224E+00    7.3890000000000242E+00    3.3442000000000100E+01
             1.0148000000000039E+01    1.4780000000000053E+00    3.3442000000000100E+01
             1.0148000000000039E+01    4.4330000000000149E+00    3.3442000000000100E+01
             1.0148000000000039E+01    7.3890000000000242E+00    3.3442000000000100E+01
             1.3104000000000040E+01    1.4780000000000053E+00    3.3442000000000100E+01
             1.3104000000000040E+01    4.4330000000000149E+00    3.3442000000000100E+01
             1.3104000000000040E+01    7.3890000000000242E+00    3.3442000000000100E+01
       &END COORD
       &VELOCITY
             0.0000000000000000E+00    0.0000000000000000E+00    0.0000000000000000E+00
             0.0000000000000000E+00    0.0000000000000000E+00    0.0000000000000000E+00
             0.0000000000000000E+00    0.0000000000000000E+00    0.0000000000000000E+00
             0.0000000000000000E+00    0.0000000000000000E+00    0.0000000000000000E+00
             0.0000000000000000E+00    0.0000000000000000E+00    0.0000000000000000E+00
             0.0000000000000000E+00    0.0000000000000000E+00    0.0000000000000000E+00
             0.0000000000000000E+00    0.0000000000000000E+00    0.0000000000000000E+00
             0.0000000000000000E+00    0.0000000000000000E+00    0.0000000000000000E+00
             0.0000000000000000E+00    0.0000000000000000E+00    0.0000000000000000E+00
             0.0000000000000000E+00    0.0000000000000000E+00    0.0000000000000000E+00
             0.0000000000000000E+00    0.0000000000000000E+00    0.0000000000000000E+00
             0.0000000000000000E+00    0.0000000000000000E+00    0.0000000000000000E+00
             0.0000000000000000E+00    0.0000000000000000E+00    0.0000000000000000E+00
             0.0000000000000000E+00    0.0000000000000000E+00    0.0000000000000000E+00
             0.0000000000000000E+00    0.0000000000000000E+00    0.0000000000000000E+00
             0.0000000000000000E+00    0.0000000000000000E+00    0.0000000000000000E+00
             0.0000000000000000E+00    0.0000000000000000E+00    0.0000000000000000E+00
             0.0000000000000000E+00    0.0000000000000000E+00    0.0000000000000000E+00
             0.0000000000000000E+00    0.0000000000000000E+00    0.0000000000000000E+00
             0.0000000000000000E+00    0.0000000000000000E+00    0.0000000000000000E+00
             0.0000000000000000E+00    0.0000000000000000E+00    0.0000000000000000E+00
             0.0000000000000000E+00    0.0000000000000000E+00    0.0000000000000000E+00
             0.0000000000000000E+00    0.0000000000000000E+00    0.0000000000000000E+00
             0.0000000000000000E+00    0.0000000000000000E+00    0.0000000000000000E+00
             0.0000000000000000E+00    0.0000000000000000E+00    0.0000000000000000E+00
             0.0000000000000000E+00    0.0000000000000000E+00    0.0000000000000000E+00
             0.0000000000000000E+00    0.0000000000000000E+00    0.0000000000000000E+00
             0.0000000000000000E+00    0.0000000000000000E+00    0.0000000000000000E+00
             0.0000000000000000E+00    0.0000000000000000E+00    0.0000000000000000E+00
             0.0000000000000000E+00    0.0000000000000000E+00    0.0000000000000000E+00
             0.0000000000000000E+00    0.0000000000000000E+00    0.0000000000000000E+00
             0.0000000000000000E+00    0.0000000000000000E+00    0.0000000000000000E+00
             0.0000000000000000E+00    0.0000000000000000E+00    0.0000000000000000E+00
             0.0000000000000000E+00    0.0000000000000000E+00    0.0000000000000000E+00
             0.0000000000000000E+00    0.0000000000000000E+00    0.0000000000000000E+00
             0.0000000000000000E+00    0.0000000000000000E+00    0.0000000000000000E+00
             0.0000000000000000E+00    0.0000000000000000E+00    0.0000000000000000E+00
             0.0000000000000000E+00    0.0000000000000000E+00    0.0000000000000000E+00
             0.0000000000000000E+00    0.0000000000000000E+00    0.0000000000000000E+00
             0.0000000000000000E+00    0.0000000000000000E+00    0.0000000000000000E+00
             0.0000000000000000E+00    0.0000000000000000E+00    0.0000000000000000E+00
             0.0000000000000000E+00    0.0000000000000000E+00    0.0000000000000000E+00
             0.0000000000000000E+00    0.0000000000000000E+00    0.0000000000000000E+00
             0.0000000000000000E+00    0.0000000000000000E+00    0.0000000000000000E+00
             0.0000000000000000E+00    0.0000000000000000E+00    0.0000000000000000E+00
             0.0000000000000000E+00    0.0000000000000000E+00    0.0000000000000000E+00
             0.0000000000000000E+00    0.0000000000000000E+00    0.0000000000000000E+00
             0.0000000000000000E+00    0.0000000000000000E+00    0.0000000000000000E+00
             0.0000000000000000E+00    0.0000000000000000E+00    0.0000000000000000E+00
             0.0000000000000000E+00    0.0000000000000000E+00    0.0000000000000000E+00
             0.0000000000000000E+00    0.0000000000000000E+00    0.0000000000000000E+00
             0.0000000000000000E+00    0.0000000000000000E+00    0.0000000000000000E+00
             0.0000000000000000E+00    0.0000000000000000E+00    0.0000000000000000E+00
             0.0000000000000000E+00    0.0000000000000000E+00    0.0000000000000000E+00
             0.0000000000000000E+00    0.0000000000000000E+00    0.0000000000000000E+00
             0.0000000000000000E+00    0.0000000000000000E+00    0.0000000000000000E+00
             0.0000000000000000E+00    0.0000000000000000E+00    0.0000000000000000E+00
             0.0000000000000000E+00    0.0000000000000000E+00    0.0000000000000000E+00
             0.0000000000000000E+00    0.0000000000000000E+00    0.0000000000000000E+00
             0.0000000000000000E+00    0.0000000000000000E+00    0.0000000000000000E+00
             0.0000000000000000E+00    0.0000000000000000E+00    0.0000000000000000E+00
             0.0000000000000000E+00    0.0000000000000000E+00    0.0000000000000000E+00
             0.0000000000000000E+00    0.0000000000000000E+00    0.0000000000000000E+00
             0.0000000000000000E+00    0.0000000000000000E+00    0.0000000000000000E+00
             0.0000000000000000E+00    0.0000000000000000E+00    0.0000000000000000E+00
             0.0000000000000000E+00    0.0000000000000000E+00    0.0000000000000000E+00
             0.0000000000000000E+00    0.0000000000000000E+00    0.0000000000000000E+00
             0.0000000000000000E+00    0.0000000000000000E+00    0.0000000000000000E+00
             0.0000000000000000E+00    0.0000000000000000E+00    0.0000000000000000E+00
             0.0000000000000000E+00    0.0000000000000000E+00    0.0000000000000000E+00
             0.0000000000000000E+00    0.0000000000000000E+00    0.0000000000000000E+00
             0.0000000000000000E+00    0.0000000000000000E+00    0.0000000000000000E+00
             0.0000000000000000E+00    0.0000000000000000E+00    0.0000000000000000E+00
             0.0000000000000000E+00    0.0000000000000000E+00    0.0000000000000000E+00
             0.0000000000000000E+00    0.0000000000000000E+00    0.0000000000000000E+00
             0.0000000000000000E+00    0.0000000000000000E+00    0.0000000000000000E+00
             0.0000000000000000E+00    0.0000000000000000E+00    0.0000000000000000E+00
             0.0000000000000000E+00    0.0000000000000000E+00    0.0000000000000000E+00
             0.0000000000000000E+00    0.0000000000000000E+00    0.0000000000000000E+00
             0.0000000000000000E+00    0.0000000000000000E+00    0.0000000000000000E+00
             0.0000000000000000E+00    0.0000000000000000E+00    0.0000000000000000E+00
             0.0000000000000000E+00    0.0000000000000000E+00    0.0000000000000000E+00
             0.0000000000000000E+00    0.0000000000000000E+00    0.0000000000000000E+00
             0.0000000000000000E+00    0.0000000000000000E+00    0.0000000000000000E+00
             0.0000000000000000E+00    0.0000000000000000E+00    0.0000000000000000E+00
             0.0000000000000000E+00    0.0000000000000000E+00    0.0000000000000000E+00
             0.0000000000000000E+00    0.0000000000000000E+00    0.0000000000000000E+00
             0.0000000000000000E+00    0.0000000000000000E+00    0.0000000000000000E+00
             0.0000000000000000E+00    0.0000000000000000E+00    0.0000000000000000E+00
             0.0000000000000000E+00    0.0000000000000000E+00    0.0000000000000000E+00
             0.0000000000000000E+00    0.0000000000000000E+00    0.0000000000000000E+00
             0.0000000000000000E+00    0.0000000000000000E+00    0.0000000000000000E+00
             0.0000000000000000E+00    0.0000000000000000E+00    0.0000000000000000E+00
             0.0000000000000000E+00    0.0000000000000000E+00    0.0000000000000000E+00
             0.0000000000000000E+00    0.0000000000000000E+00    0.0000000000000000E+00
             0.0000000000000000E+00    0.0000000000000000E+00    0.0000000000000000E+00
             0.0000000000000000E+00    0.0000000000000000E+00    0.0000000000000000E+00
             0.0000000000000000E+00    0.0000000000000000E+00    0.0000000000000000E+00
             0.0000000000000000E+00    0.0000000000000000E+00    0.0000000000000000E+00
             0.0000000000000000E+00    0.0000000000000000E+00    0.0000000000000000E+00
             0.0000000000000000E+00    0.0000000000000000E+00    0.0000000000000000E+00
             0.0000000000000000E+00    0.0000000000000000E+00    0.0000000000000000E+00
             0.0000000000000000E+00    0.0000000000000000E+00    0.0000000000000000E+00
             0.0000000000000000E+00    0.0000000000000000E+00    0.0000000000000000E+00
             0.0000000000000000E+00    0.0000000000000000E+00    0.0000000000000000E+00
             0.0000000000000000E+00    0.0000000000000000E+00    0.0000000000000000E+00
             0.0000000000000000E+00    0.0000000000000000E+00    0.0000000000000000E+00
             0.0000000000000000E+00    0.0000000000000000E+00    0.0000000000000000E+00
             0.0000000000000000E+00    0.0000000000000000E+00    0.0000000000000000E+00
             0.0000000000000000E+00    0.0000000000000000E+00    0.0000000000000000E+00
             0.0000000000000000E+00    0.0000000000000000E+00    0.0000000000000000E+00
             0.0000000000000000E+00    0.0000000000000000E+00    0.0000000000000000E+00
             0.0000000000000000E+00    0.0000000000000000E+00    0.0000000000000000E+00
             0.0000000000000000E+00    0.0000000000000000E+00    0.0000000000000000E+00
             0.0000000000000000E+00    0.0000000000000000E+00    0.0000000000000000E+00
             0.0000000000000000E+00    0.0000000000000000E+00    0.0000000000000000E+00
             0.0000000000000000E+00    0.0000000000000000E+00    0.0000000000000000E+00
             0.0000000000000000E+00    0.0000000000000000E+00    0.0000000000000000E+00
             0.0000000000000000E+00    0.0000000000000000E+00    0.0000000000000000E+00
             0.0000000000000000E+00    0.0000000000000000E+00    0.0000000000000000E+00
             0.0000000000000000E+00    0.0000000000000000E+00    0.0000000000000000E+00
             0.0000000000000000E+00    0.0000000000000000E+00    0.0000000000000000E+00
             0.0000000000000000E+00    0.0000000000000000E+00    0.0000000000000000E+00
             0.0000000000000000E+00    0.0000000000000000E+00    0.0000000000000000E+00
             0.0000000000000000E+00    0.0000000000000000E+00    0.0000000000000000E+00
             0.0000000000000000E+00    0.0000000000000000E+00    0.0000000000000000E+00
             0.0000000000000000E+00    0.0000000000000000E+00    0.0000000000000000E+00
             0.0000000000000000E+00    0.0000000000000000E+00    0.0000000000000000E+00
             0.0000000000000000E+00    0.0000000000000000E+00    0.0000000000000000E+00
             0.0000000000000000E+00    0.0000000000000000E+00    0.0000000000000000E+00
             0.0000000000000000E+00    0.0000000000000000E+00    0.0000000000000000E+00
             0.0000000000000000E+00    0.0000000000000000E+00    0.0000000000000000E+00
             0.0000000000000000E+00    0.0000000000000000E+00    0.0000000000000000E+00
             0.0000000000000000E+00    0.0000000000000000E+00    0.0000000000000000E+00
             0.0000000000000000E+00    0.0000000000000000E+00    0.0000000000000000E+00
             0.0000000000000000E+00    0.0000000000000000E+00    0.0000000000000000E+00
             0.0000000000000000E+00    0.0000000000000000E+00    0.0000000000000000E+00
             0.0000000000000000E+00    0.0000000000000000E+00    0.0000000000000000E+00
             0.0000000000000000E+00    0.0000000000000000E+00    0.0000000000000000E+00
             0.0000000000000000E+00    0.0000000000000000E+00    0.0000000000000000E+00
             0.0000000000000000E+00    0.0000000000000000E+00    0.0000000000000000E+00
             0.0000000000000000E+00    0.0000000000000000E+00    0.0000000000000000E+00
             0.0000000000000000E+00    0.0000000000000000E+00    0.0000000000000000E+00
             0.0000000000000000E+00    0.0000000000000000E+00    0.0000000000000000E+00