     183
 i =     114, E =    -5729.7826078954
 Au         0.0000000000        0.0000000000        0.0000000000
 Au         0.0000000000        2.9550000000        0.0000000000
 Au         0.0000000000        5.9110000000        0.0000000000
 Au         2.9560000000        0.0000000000        0.0000000000
 Au         2.9560000000        2.9550000000        0.0000000000
 Au         2.9560000000        5.9110000000        0.0000000000
 Au         5.9120000000        0.0000000000        0.0000000000
 Au         5.9120000000        2.9550000000        0.0000000000
 Au         5.9120000000        5.9110000000        0.0000000000
 Au         8.6700000000        0.0000000000        0.0000000000
 Au         8.6700000000        2.9550000000        0.0000000000
 Au         8.6700000000        5.9110000000        0.0000000000
 Au        11.6260000000        0.0000000000        0.0000000000
 Au        11.6260000000        2.9550000000        0.0000000000
 Au        11.6260000000        5.9110000000        0.0000000000
 Au         1.4780000000        1.4780000000        2.0900000000
 Au         1.4780000000        4.4330000000        2.0900000000
 Au         1.4780000000        7.3890000000        2.0900000000
 Au         4.4340000000        1.4780000000        2.0900000000
 Au         4.4340000000        4.4330000000        2.0900000000
 Au         4.4340000000        7.3890000000        2.0900000000
 Au         7.1920000000        1.4780000000        2.0900000000
 Au         7.1920000000        4.4330000000        2.0900000000
 Au         7.1920000000        7.3890000000        2.0900000000
 Au        10.1480000000        1.4780000000        2.0900000000
 Au        10.1480000000        4.4330000000        2.0900000000
 Au        10.1480000000        7.3890000000        2.0900000000
 Au        13.1040000000        1.4780000000        2.0900000000
 Au        13.1040000000        4.4330000000        2.0900000000
 Au        13.1040000000        7.3890000000        2.0900000000
 Au         0.0000000000        0.0000000000        4.1800000000
 Au         0.0000000000        2.9550000000        4.1800000000
 Au         0.0000000000        5.9110000000        4.1800000000
 Au         2.9560000000        0.0000000000        4.1800000000
 Au         2.9560000000        2.9550000000        4.1800000000
 Au         2.9560000000        5.9110000000        4.1800000000
 Au         5.9120000000        0.0000000000        4.1800000000
 Au         5.9120000000        2.9550000000        4.1800000000
 Au         5.9120000000        5.9110000000        4.1800000000
 Au         8.6700000000        0.0000000000        4.1800000000
 Au         8.6700000000        2.9550000000        4.1800000000
 Au         8.6700000000        5.9110000000        4.1800000000
 Au        11.6260000000        0.0000000000        4.1800000000
 Au        11.6260000000        2.9550000000        4.1800000000
 Au        11.6260000000        5.9110000000        4.1800000000
 Au         1.4780000000        1.4780000000        6.2700000000
 Au         1.4780000000        4.4330000000        6.2700000000
 Au         1.4780000000        7.3890000000        6.2700000000
 Au         4.4340000000        1.4780000000        6.2700000000
 Au         4.4340000000        4.4330000000        6.2700000000
 Au         4.4340000000        7.3890000000        6.2700000000
 Au         7.1920000000        1.4780000000        6.2700000000
 Au         7.1920000000        4.4330000000        6.2700000000
 Au         7.1920000000        7.3890000000        6.2700000000
 Au        10.1480000000        1.4780000000        6.2700000000
 Au        10.1480000000        4.4330000000        6.2700000000
 Au        10.1480000000        7.3890000000        6.2700000000
 Au        13.1040000000        1.4780000000        6.2700000000
 Au        13.1040000000        4.4330000000        6.2700000000
 Au        13.1040000000        7.3890000000        6.2700000000
 Au         0.0000000000        0.0000000000        8.3600000000
 Au         0.0000000000        2.9550000000        8.3600000000
 Au         0.0000000000        5.9110000000        8.3600000000
 Au         2.9560000000        0.0000000000        8.3600000000
 Au         2.9560000000        2.9550000000        8.3600000000
 Au         2.9560000000        5.9110000000        8.3600000000
 Au         5.9120000000        0.0000000000        8.3600000000
 Au         5.9120000000        2.9550000000        8.3600000000
 Au         5.9120000000        5.9110000000        8.3600000000
 Au         8.6700000000        0.0000000000        8.3600000000
 Au         8.6700000000        2.9550000000        8.3600000000
 Au         8.6700000000        5.9110000000        8.3600000000
 Au        11.6260000000        0.0000000000        8.3600000000
 Au        11.6260000000        2.9550000000        8.3600000000
 Au        11.6260000000        5.9110000000        8.3600000000
 Au         1.4780000000        1.4780000000       10.4500000000
 Au         1.4780000000        4.4330000000       10.4500000000
 Au         1.4780000000        7.3890000000       10.4500000000
 Au         4.4340000000        1.4780000000       10.4500000000
 Au         4.4340000000        4.4330000000       10.4500000000
 Au         4.4340000000        7.3890000000       10.4500000000
 Au         7.1920000000        1.4780000000       10.4500000000
 Au         7.1920000000        4.4330000000       10.4500000000
 Au         7.1920000000        7.3890000000       10.4500000000
 Au        10.1480000000        1.4780000000       10.4500000000
 Au        10.1480000000        4.4330000000       10.4500000000
 Au        10.1480000000        7.3890000000       10.4500000000
 Au        13.1040000000        1.4780000000       10.4500000000
 Au        13.1040000000        4.4330000000       10.4500000000
 Au        13.1040000000        7.3890000000       10.4500000000
  N         4.8554000000        5.9119000000       12.0318000000
  N         9.5280000000        5.9137000000       12.0340000000
  N         7.1920000000        5.9340000000       12.0400000000
  H        10.3189054048        5.9087793826       12.6857470732
  H         4.0673339928        5.9059993220       12.6877413689
  C         8.3738707293        5.9179777707       12.7314572522
  C         5.9989554222        5.9152564166       12.7926424112
  N         8.3227525762        5.9051536095       14.0804976421
  N         5.9344285049        5.8981604865       14.1017499696
  H         9.1743570613        5.8876302392       14.6410177353
  C         7.1039653577        5.8899410689       14.8287032191
  N         7.2416021047        5.8657702092       16.1064667573
  H         6.3118250323        5.8547577071       16.5396013062
 Au         7.3120000000        5.9340000000       21.0430000000
 Au         5.8130000000        7.4340000000       22.9920000000
 Au         8.8130000000        4.4340000000       22.9920000000
 Au         5.8130000000        4.4330000000       22.9920000000
 Au         8.8130000000        7.4340000000       22.9920000000
 Au         1.4780000000        1.4780000000       25.0820000000
 Au         1.4780000000        4.4330000000       25.0820000000
 Au         1.4780000000        7.3890000000       25.0820000000
 Au         4.4340000000        1.4780000000       25.0820000000
 Au         4.4340000000        4.4330000000       25.0820000000
 Au         4.4340000000        7.3890000000       25.0820000000
 Au         7.1920000000        1.4780000000       25.0820000000
 Au         7.1920000000        4.4330000000       25.0820000000
 Au         7.1920000000        7.3890000000       25.0820000000
 Au        10.1480000000        1.4780000000       25.0820000000
 Au        10.1480000000        4.4330000000       25.0820000000
 Au        10.1480000000        7.3890000000       25.0820000000
 Au        13.1040000000        1.4780000000       25.0820000000
 Au        13.1040000000        4.4330000000       25.0820000000
 Au        13.1040000000        7.3890000000       25.0820000000
 Au         0.0000000000        0.0000000000       27.1720000000
 Au         0.0000000000        2.9550000000       27.1720000000
 Au         0.0000000000        5.9110000000       27.1720000000
 Au         2.9560000000        0.0000000000       27.1720000000
 Au         2.9560000000        2.9550000000       27.1720000000
 Au         2.9560000000        5.9110000000       27.1720000000
 Au         5.9120000000        0.0000000000       27.1720000000
 Au         5.9120000000        2.9550000000       27.1720000000
 Au         5.9120000000        5.9110000000       27.1720000000
 Au         8.6700000000        0.0000000000       27.1720000000
 Au         8.6700000000        2.9550000000       27.1720000000
 Au         8.6700000000        5.9110000000       27.1720000000
 Au        11.6260000000        0.0000000000       27.1720000000
 Au        11.6260000000        2.9550000000       27.1720000000
 Au        11.6260000000        5.9110000000       27.1720000000
 Au         1.4780000000        1.4780000000       29.2620000000
 Au         1.4780000000        4.4330000000       29.2620000000
 Au         1.4780000000        7.3890000000       29.2620000000
 Au         4.4340000000        1.4780000000       29.2620000000
 Au         4.4340000000        4.4330000000       29.2620000000
 Au         4.4340000000        7.3890000000       29.2620000000
 Au         7.1920000000        1.4780000000       29.2620000000
 Au         7.1920000000        4.4330000000       29.2620000000
 Au         7.1920000000        7.3890000000       29.2620000000
 Au        10.1480000000        1.4780000000       29.2620000000
 Au        10.1480000000        4.4330000000       29.2620000000
 Au        10.1480000000        7.3890000000       29.2620000000
 Au        13.1040000000        1.4780000000       29.2620000000
 Au        13.1040000000        4.4330000000       29.2620000000
 Au        13.1040000000        7.3890000000       29.2620000000
 Au         0.0000000000        0.0000000000       31.3520000000
 Au         0.0000000000        2.9550000000       31.3520000000
 Au         0.0000000000        5.9110000000       31.3520000000
 Au         2.9560000000        0.0000000000       31.3520000000
 Au         2.9560000000        2.9550000000       31.3520000000
 Au         2.9560000000        5.9110000000       31.3520000000
 Au         5.9120000000        0.0000000000       31.3520000000
 Au         5.9120000000        2.9550000000       31.3520000000
 Au         5.9120000000        5.9110000000       31.3520000000
 Au         8.6700000000        0.0000000000       31.3520000000
 Au         8.6700000000        2.9550000000       31.3520000000
 Au         8.6700000000        5.9110000000       31.3520000000
 Au        11.6260000000        0.0000000000       31.3520000000
 Au        11.6260000000        2.9550000000       31.3520000000
 Au        11.6260000000        5.9110000000       31.3520000000
 Au         1.4780000000        1.4780000000       33.4420000000
 Au         1.4780000000        4.4330000000       33.4420000000
 Au         1.4780000000        7.3890000000       33.4420000000
 Au         4.4340000000        1.4780000000       33.4420000000
 Au         4.4340000000        4.4330000000       33.4420000000
 Au         4.4340000000        7.3890000000       33.4420000000
 Au         7.1920000000        1.4780000000       33.4420000000
 Au         7.1920000000        4.4330000000       33.4420000000
 Au         7.1920000000        7.3890000000       33.4420000000
 Au        10.1480000000        1.4780000000       33.4420000000
 Au        10.1480000000        4.4330000000       33.4420000000
 Au        10.1480000000        7.3890000000       33.4420000000
 Au        13.1040000000        1.4780000000       33.4420000000
 Au        13.1040000000        4.4330000000       33.4420000000
 Au        13.1040000000        7.3890000000       33.4420000000
     183
 i =     114, E =    -5729.7838200483
 Au         0.0002768656        0.0005585689        0.0004444522
 Au         0.0003431623        2.9555585546        0.0002294182
 Au         0.0004094815        5.9115585402        0.0000143114
 Au         2.9562768630        0.0004922413        0.0003753845
 Au         2.9563431597        2.9554922270        0.0001603505
 Au         2.9564094789        5.9114922126       -0.0000547562
 Au         5.9122768604        0.0004259137        0.0003063168
 Au         5.9123431571        2.9554258993        0.0000912828
 Au         5.9124094763        5.9114258850       -0.0001238239
 Au         8.6702768579        0.0003640289        0.0002418755
 Au         8.6703431547        2.9553640145        0.0000268415
 Au         8.6704094739        5.9113640002       -0.0001882653
 Au        11.6262768553        0.0002977013        0.0001728078
 Au        11.6263431521        2.9552976869       -0.0000422262
 Au        11.6264094713        5.9112976726       -0.0002573330
 Au         1.4783588629        1.4786774844        2.0903023547
 Au         1.4784251597        4.4336774701        2.0900873208
 Au         1.4784914789        7.3896774557        2.0898722140
 Au         4.4343588603        1.4786111568        2.0902332871
 Au         4.4344251571        4.4336111425        2.0900182531
 Au         4.4344914763        7.3896111281        2.0898031463
 Au         7.1923588579        1.4785492720        2.0901688457
 Au         7.1924251547        4.4335492577        2.0899538117
 Au         7.1924914738        7.3895492433        2.0897387049
 Au        10.1483588553        1.4784829444        2.0900997780
 Au        10.1484251521        4.4334829300        2.0898847440
 Au        10.1484914712        7.3894829157        2.0896696373
 Au        13.1043588527        1.4784166168        2.0900307103
 Au        13.1044251495        4.4334166024        2.0898156763
 Au        13.1044914686        7.3894165881        2.0896005696
 Au         0.0003745437        0.0008627419        4.1804444317
 Au         0.0004408405        2.9558627276        4.1802293977
 Au         0.0005071597        5.9118627132        4.1800142910
 Au         2.9563745411        0.0007964143        4.1803753640
 Au         2.9564408379        2.9557964000        4.1801603301
 Au         2.9565071571        5.9117963856        4.1799452233
 Au         5.9123745385        0.0007300867        4.1803062964
 Au         5.9124408353        2.9557300724        4.1800912624
 Au         5.9125071545        5.9117300580        4.1798761556
 Au         8.6703745361        0.0006682019        4.1802418550
 Au         8.6704408329        2.9556681875        4.1800268210
 Au         8.6705071520        5.9116681732        4.1798117143
 Au        11.6263745335        0.0006018743        4.1801727873
 Au        11.6264408303        2.9556018599        4.1799577533
 Au        11.6265071494        5.9116018456        4.1797426466
 Au         1.4784565411        1.4789816574        6.2703023343
 Au         1.4785228379        4.4339816431        6.2700873003
 Au         1.4785891570        7.3899816287        6.2698721935
 Au         4.4344565385        1.4789153298        6.2702332666
 Au         4.4345228353        4.4339153155        6.2700182326
 Au         4.4345891544        7.3899153011        6.2698031258
 Au         7.1924565361        1.4788534450        6.2701688252
 Au         7.1925228328        4.4338534307        6.2699537912
 Au         7.1925891520        7.3898534163        6.2697386845
 Au        10.1484565335        1.4787871174        6.2700997575
 Au        10.1485228302        4.4337871031        6.2698847236
 Au        10.1485891494        7.3897870887        6.2696696168
 Au        13.1044565309        1.4787207898        6.2700306899
 Au        13.1045228276        4.4337207754        6.2698156559
 Au        13.1045891468        7.3897207611        6.2696005491
 Au         0.0004722219        0.0011669149        8.3604444113
 Au         0.0005385187        2.9561669006        8.3602293773
 Au         0.0006048378        5.9121668862        8.3600142705
 Au         2.9564722193        0.0011005873        8.3603753436
 Au         2.9565385161        2.9561005730        8.3601603096
 Au         2.9566048352        5.9121005586        8.3599452028
 Au         5.9124722167        0.0010342597        8.3603062759
 Au         5.9125385135        2.9560342454        8.3600912419
 Au         5.9126048326        5.9120342310        8.3598761352
 Au         8.6704722143        0.0009723749        8.3602418345
 Au         8.6705385110        2.9559723605        8.3600268005
 Au         8.6706048302        5.9119723462        8.3598116938
 Au        11.6264722117        0.0009060473        8.3601727669
 Au        11.6265385084        2.9559060329        8.3599577329
 Au        11.6266048276        5.9119060186        8.3597426261
 Au         1.4785542193        1.4792858304       10.4503023138
 Au         1.4786205160        4.4342858161       10.4500872798
 Au         1.4786868352        7.3902858017       10.4498721731
 Au         4.4345542167        1.4792195028       10.4502332461
 Au         4.4346205134        4.4342194885       10.4500182121
 Au         4.4346868326        7.3902194741       10.4498031054
 Au         7.1925542143        1.4791576180       10.4501688048
 Au         7.1926205110        4.4341576037       10.4499537708
 Au         7.1926868302        7.3901575893       10.4497386640
 Au        10.1485542117        1.4790912904       10.4500997371
 Au        10.1486205084        4.4340912761       10.4498847031
 Au        10.1486868276        7.3900912617       10.4496695963
 Au        13.1045542091        1.4790249628       10.4500306694
 Au        13.1046205058        4.4340249485       10.4498156354
 Au        13.1046868250        7.3900249341       10.4496005287
  N         4.8558520258        5.9126882710       12.0318201217
  N         9.5286907283        5.9145028699       12.0337914829
  N         7.1926913417        5.9352732985       12.0398445359
  H        10.3195166479        5.9120744879       12.6855690937
  H         4.0675148717        5.9175985013       12.6874977163
  C         8.3748188083        5.9241425650       12.7305337167
  C         5.9996795933        5.9385187621       12.7932533067
  N         8.3249686961        5.9220754693       14.0793748574
  N         5.9373456529        5.9745268620       14.1025773383
  H         9.1775019217        5.9325941866       14.6386552867
  C         7.1087736502        6.0001280533       14.8271498035
  N         7.2531573531        6.0833526548       16.1018913054
  H         6.3272605287        6.1336894169       16.5399383386
 Au         7.2413172196        5.9359284334       21.0428444916
 Au         5.8730327116        7.2917368938       22.9917828450
 Au         8.7286087461        4.4360371027       22.9919191025
 Au         5.8729708093        4.4350989904       22.9919836171
 Au         8.7286706259        7.2916750061       22.9917184032
 Au         1.4788961397        1.4803505815       25.0823022422
 Au         1.4789624364        4.4353505671       25.0820872082
 Au         1.4790287556        7.3913505528       25.0818721014
 Au         4.4348961371        1.4802842539       25.0822331745
 Au         4.4349624338        4.4352842395       25.0820181405
 Au         4.4350287530        7.3912842252       25.0818030338
 Au         7.1928961347        1.4802223691       25.0821687331
 Au         7.1929624314        4.4352223547       25.0819536991
 Au         7.1930287506        7.3912223403       25.0817385924
 Au        10.1488961321        1.4801560415       25.0820996655
 Au        10.1489624288        4.4351560271       25.0818846315
 Au        10.1490287480        7.3911560127       25.0816695247
 Au        13.1048961295        1.4800897139       25.0820305978
 Au        13.1049624262        4.4350896995       25.0818155638
 Au        13.1050287454        7.3910896851       25.0816004570
 Au         0.0009118205        0.0025358390       27.1724443192
 Au         0.0009781172        2.9575358246       27.1722292852
 Au         0.0010444364        5.9135358103       27.1720141784
 Au         2.9569118179        0.0024695114       27.1723752515
 Au         2.9569781146        2.9574694970       27.1721602175
 Au         2.9570444338        5.9134694827       27.1719451107
 Au         5.9129118153        0.0024031838       27.1723061838
 Au         5.9129781120        2.9574031694       27.1720911498
 Au         5.9130444312        5.9134031551       27.1718760431
 Au         8.6709118129        0.0023412990       27.1722417424
 Au         8.6709781096        2.9573412846       27.1720267085
 Au         8.6710444288        5.9133412702       27.1718116017
 Au        11.6269118103        0.0022749714       27.1721726748
 Au        11.6269781070        2.9572749570       27.1719576408
 Au        11.6270444262        5.9132749426       27.1717425340
 Au         1.4789938179        1.4806547545       29.2623022217
 Au         1.4790601146        4.4356547401       29.2620871877
 Au         1.4791264338        7.3916547258       29.2618720810
 Au         4.4349938153        1.4805884269       29.2622331540
 Au         4.4350601120        4.4355884125       29.2620181200
 Au         4.4351264312        7.3915883982       29.2618030133
 Au         7.1929938128        1.4805265421       29.2621687127
 Au         7.1930601096        4.4355265277       29.2619536787
 Au         7.1931264288        7.3915265134       29.2617385719
 Au        10.1489938102        1.4804602145       29.2620996450
 Au        10.1490601070        4.4354602001       29.2618846110
 Au        10.1491264262        7.3914601857       29.2616695042
 Au        13.1049938076        1.4803938869       29.2620305773
 Au        13.1050601044        4.4353938725       29.2618155433
 Au        13.1051264236        7.3913938581       29.2616004366
 Au         0.0010094987        0.0028400120       31.3524442987
 Au         0.0010757954        2.9578399976       31.3522292647
 Au         0.0011421146        5.9138399833       31.3520141580
 Au         2.9570094961        0.0027736844       31.3523752310
 Au         2.9570757928        2.9577736700       31.3521601970
 Au         2.9571421120        5.9137736557       31.3519450903
 Au         5.9130094935        0.0027073568       31.3523061633
 Au         5.9130757902        2.9577073424       31.3520911294
 Au         5.9131421094        5.9137073281       31.3518760226
 Au         8.6710094910        0.0026454720       31.3522417220
 Au         8.6710757878        2.9576454576       31.3520266880
 Au         8.6711421070        5.9136454432       31.3518115812
 Au        11.6270094885        0.0025791444       31.3521726543
 Au        11.6270757852        2.9575791300       31.3519576203
 Au        11.6271421044        5.9135791156       31.3517425135
 Au         1.4790914961        1.4809589275       33.4423022013
 Au         1.4791577928        4.4359589131       33.4420871673
 Au         1.4792241120        7.3919588988       33.4418720605
 Au         4.4350914935        1.4808925999       33.4422331336
 Au         4.4351577902        4.4358925855       33.4420180996
 Au         4.4352241094        7.3918925712       33.4418029928
 Au         7.1930914910        1.4808307151       33.4421686922
 Au         7.1931577878        4.4358307007       33.4419536582
 Au         7.1932241070        7.3918306864       33.4417385515
 Au        10.1490914884        1.4807643875       33.4420996245
 Au        10.1491577852        4.4357643731       33.4418845905
 Au        10.1492241044        7.3917643588       33.4416694838
 Au        13.1050914858        1.4806980599       33.4420305568
 Au        13.1051577826        4.4356980455       33.4418155229
 Au        13.1052241018        7.3916980311       33.4416004161
     183
 i =     114, E =    -5729.7726030095
 Au         0.0004656303        0.0009401890        0.0007504349
 Au         0.0005776568        2.9559401648        0.0003876378
 Au         0.0006897213        5.9119401406        0.0000247180
 Au         2.9564656259        0.0008281103        0.0006338948
 Au         2.9565776525        2.9558280861        0.0002710978
 Au         2.9566897169        5.9118280619       -0.0000918221
 Au         5.9124656215        0.0007160316        0.0005173547
 Au         5.9125776481        2.9557160074        0.0001545577
 Au         5.9126897126        5.9117159832       -0.0002083622
 Au         8.6704656174        0.0006114603        0.0004086208
 Au         8.6705776440        2.9556114360        0.0000458237
 Au         8.6706897085        5.9116114118       -0.0003170961
 Au        11.6264656130        0.0004993816        0.0002920807
 Au        11.6265776396        2.9554993573       -0.0000707164
 Au        11.6266897041        5.9114993331       -0.0004336362
 Au         1.4786040681        1.4791407320        2.0905106877
 Au         1.4787160946        4.4341407078        2.0901478906
 Au         1.4788281591        7.3901406836        2.0897849708
 Au         4.4346040637        1.4790286533        2.0903941476
 Au         4.4347160903        4.4340286291        2.0900313505
 Au         4.4348281547        7.3900286049        2.0896684307
 Au         7.1926040596        1.4789240820        2.0902854136
 Au         7.1927160862        4.4339240577        2.0899226166
 Au         7.1928281506        7.3899240335        2.0895596968
 Au        10.1486040552        1.4788120033        2.0901688736
 Au        10.1487160818        4.4338119791        2.0898060765
 Au        10.1488281463        7.3898119548        2.0894431567
 Au        13.1046040508        1.4786999246        2.0900523335
 Au        13.1047160774        4.4336999004        2.0896895364
 Au        13.1048281419        7.3896998761        2.0893266166
 Au         0.0006304458        0.0014533780        4.1807504004
 Au         0.0007424723        2.9564533537        4.1803876033
 Au         0.0008545368        5.9124533295        4.1800246835
 Au         2.9566304414        0.0013412993        4.1806338603
 Au         2.9567424679        2.9563412751        4.1802710632
 Au         2.9568545324        5.9123412508        4.1799081434
 Au         5.9126304370        0.0012292206        4.1805173202
 Au         5.9127424636        2.9562291964        4.1801545232
 Au         5.9128545280        5.9122291721        4.1797916033
 Au         8.6706304329        0.0011246492        4.1804085863
 Au         8.6707424595        2.9561246250        4.1800457892
 Au         8.6708545239        5.9121246008        4.1796828694
 Au        11.6266304285        0.0010125705        4.1802920462
 Au        11.6267424551        2.9560125463        4.1799292491
 Au        11.6268545196        5.9120125221        4.1795663293
 Au         1.4787688836        1.4796539210        6.2705106532
 Au         1.4788809101        4.4346538968        6.2701478561
 Au         1.4789929746        7.3906538725        6.2697849363
 Au         4.4347688792        1.4795418423        6.2703941131
 Au         4.4348809057        4.4345418181        6.2700313160
 Au         4.4349929702        7.3905417938        6.2696683962
 Au         7.1927688751        1.4794372709        6.2702853791
 Au         7.1928809016        4.4344372467        6.2699225821
 Au         7.1929929661        7.3904372225        6.2695596622
 Au        10.1487688707        1.4793251922        6.2701688390
 Au        10.1488808973        4.4343251680        6.2698060420
 Au        10.1489929617        7.3903251438        6.2694431222
 Au        13.1047688663        1.4792131135        6.2700522990
 Au        13.1048808929        4.4342130893        6.2696895019
 Au        13.1049929574        7.3902130651        6.2693265821
 Au         0.0007952613        0.0019665669        8.3607503659
 Au         0.0009072878        2.9569665427        8.3603875688
 Au         0.0010193523        5.9129665185        8.3600246490
 Au         2.9567952569        0.0018544882        8.3606338258
 Au         2.9569072834        2.9568544640        8.3602710287
 Au         2.9570193479        5.9128544398        8.3599081089
 Au         5.9127952525        0.0017424096        8.3605172857
 Au         5.9129072790        2.9567423853        8.3601544886
 Au         5.9130193435        5.9127423611        8.3597915688
 Au         8.6707952484        0.0016378382        8.3604085517
 Au         8.6709072750        2.9566378139        8.3600457547
 Au         8.6710193394        5.9126377897        8.3596828349
 Au        11.6267952440        0.0015257595        8.3602920116
 Au        11.6269072706        2.9565257353        8.3599292146
 Au        11.6270193350        5.9125257110        8.3595662948
 Au         1.4789336990        1.4801671099       10.4505106186
 Au         1.4790457256        4.4351670857       10.4501478216
 Au         1.4791577901        7.3911670615       10.4497849018
 Au         4.4349336947        1.4800550313       10.4503940786
 Au         4.4350457212        4.4350550070       10.4500312815
 Au         4.4351577857        7.3910549828       10.4496683617
 Au         7.1929336906        1.4799504599       10.4502853446
 Au         7.1930457171        4.4349504357       10.4499225476
 Au         7.1931577816        7.3909504114       10.4495596277
 Au        10.1489336862        1.4798383812       10.4501688045
 Au        10.1490457127        4.4348383570       10.4498060075
 Au        10.1491577772        7.3908383327       10.4494430876
 Au        13.1049336818        1.4797263025       10.4500522644
 Au        13.1050457084        4.4347262783       10.4496894674
 Au        13.1051577728        7.3907262540       10.4493265476
  N         4.8561616137        5.9132275958       12.0318344690
  N         9.5291642782        5.9150519199       12.0336487324
  N         7.1931653143        5.9361456316       12.0397382507