     183
 i =     114, E =    -5729.7577244618
 Au         0.0004673787        0.0009437323        0.0007533013
 Au         0.0005798346        2.9559437080        0.0003891230
 Au         0.0006923286        5.9119436837        0.0000248215
 Au         2.9564673743        0.0008312241        0.0006363174
 Au         2.9565798302        2.9558311998        0.0002721391
 Au         2.9566923242        5.9118311755       -0.0000921625
 Au         5.9124673699        0.0007187159        0.0005193334
 Au         5.9125798258        2.9557186916        0.0001551551
 Au         5.9126923198        5.9117186672       -0.0002091464
 Au         8.6704673658        0.0006137437        0.0004101853
 Au         8.6705798217        2.9556137194        0.0000460070
 Au         8.6706923156        5.9116136951       -0.0003182945
 Au        11.6264673614        0.0005012355        0.0002932013
 Au        11.6265798173        2.9555012112       -0.0000709770
 Au        11.6266923112        5.9115011868       -0.0004352785
 Au         1.4786063451        1.4791450375        2.0905126413
 Au         1.4787188010        4.4341450131        2.0901484630
 Au         1.4788312950        7.3901449888        2.0897841614
 Au         4.4346063407        1.4790325292        2.0903956573
 Au         4.4347187966        4.4340325049        2.0900314790
 Au         4.4348312906        7.3900324806        2.0896671775
 Au         7.1926063366        1.4789275571        2.0902865092
 Au         7.1927187925        4.4339275327        2.0899223309
 Au         7.1928312865        7.3899275084        2.0895580294
 Au        10.1486063322        1.4788150488        2.0901695252
 Au        10.1487187881        4.4338150245        2.0898053469
 Au        10.1488312821        7.3898150002        2.0894410454
 Au        13.1046063278        1.4787025406        2.0900525412
 Au        13.1047187837        4.4337025163        2.0896883629
 Au        13.1048312777        7.3897024920        2.0893240614
 Au         0.0006328219        0.0014588751        4.1807532667
 Au         0.0007452778        2.9564588508        4.1803890884
 Au         0.0008577718        5.9124588265        4.1800247868
 Au         2.9566328175        0.0013463669        4.1806362827
 Au         2.9567452734        2.9563463426        4.1802721044
 Au         2.9568577674        5.9123463182        4.1799078029
 Au         5.9126328131        0.0012338587        4.1805192987
 Au         5.9127452690        2.9562338343        4.1801551204
 Au         5.9128577630        5.9122338100        4.1797908189
 Au         8.6706328090        0.0011288865        4.1804101506
 Au         8.6707452649        2.9561288622        4.1800459723
 Au         8.6708577589        5.9121288379        4.1796816708
 Au        11.6266328046        0.0010163783        4.1802931667
 Au        11.6267452605        2.9560163539        4.1799289884
 Au        11.6268577545        5.9120163296        4.1795646868
 Au         1.4787717883        1.4796601802        6.2705126066
 Au         1.4788842442        4.4346601559        6.2701484283
 Au         1.4789967382        7.3906601316        6.2697841268
 Au         4.4347717839        1.4795476720        6.2703956226
 Au         4.4348842398        4.4345476477        6.2700314443
 Au         4.4349967338        7.3905476234        6.2696671428
 Au         7.1927717798        1.4794426998        6.2702864745
 Au         7.1928842357        4.4344426755        6.2699222962
 Au         7.1929967297        7.3904426512        6.2695579947
 Au        10.1487717754        1.4793301916        6.2701694906
 Au        10.1488842313        4.4343301673        6.2698053123
 Au        10.1489967253        7.3903301430        6.2694410107
 Au        13.1047717710        1.4792176834        6.2700525066
 Au        13.1048842269        4.4342176591        6.2696883283
 Au        13.1049967209        7.3902176347        6.2693240268
 Au         0.0007982652        0.0019740179        8.3607532320
 Au         0.0009107211        2.9569739936        8.3603890537
 Au         0.0010232150        5.9129739693        8.3600247522
 Au         2.9567982608        0.0018615097        8.3606362481
 Au         2.9569107167        2.9568614853        8.3602720698
 Au         2.9570232106        5.9128614610        8.3599077682
 Au         5.9127982564        0.0017490014        8.3605192641
 Au         5.9129107123        2.9567489771        8.3601550858
 Au         5.9130232062        5.9127489528        8.3597907843
 Au         8.6707982523        0.0016440293        8.3604101160
 Au         8.6709107082        2.9566440050        8.3600459377
 Au         8.6710232021        5.9126439806        8.3596816362
 Au        11.6267982479        0.0015315210        8.3602931320
 Au        11.6269107038        2.9565314967        8.3599289537
 Au        11.6270231977        5.9125314724        8.3595646522
 Au         1.4789372316        1.4801753230       10.4505125720
 Au         1.4790496875        4.4351752987       10.4501483937
 Au         1.4791621814        7.3911752744       10.4497840921
 Au         4.4349372272        1.4800628148       10.4503955880
 Au         4.4350496831        4.4350627905       10.4500314097
 Au         4.4351621770        7.3910627661       10.4496671082
 Au         7.1929372231        1.4799578426       10.4502864399
 Au         7.1930496790        4.4349578183       10.4499222616
 Au         7.1931621729        7.3909577940       10.4495579600
 Au        10.1489372187        1.4798453344       10.4501694559
 Au        10.1490496746        4.4348453101       10.4498052776
 Au        10.1491621685        7.3908452857       10.4494409761
 Au        13.1049372143        1.4797328261       10.4500524719
 Au        13.1050496702        4.4347328018       10.4496882936
 Au        13.1051621641        7.3907327775       10.4493239921
  N         4.8561644965        5.9132326119       12.0318346087
  N         9.5291686929        5.9150570235       12.0336474038
  N         7.1931697330        5.9361537574       12.0397372631
  H        10.3183830847        5.9149360598       12.6870126383
  H         4.0677788651        5.9211149839       12.6883582175
  C         8.3741092023        5.9237808853       12.7272982430
  C         6.0014925002        5.9553772929       12.8045766181
  N         8.3212675514        5.9223313672       14.0660559654
  N         5.9381890155        6.0272465186       14.1243287950
  H         9.1670782434        5.9683657216       14.6341842564
  C         7.1131256218        6.0494725541       14.8557780667
  N         7.4187669871        6.1247690673       16.0937400010
  H         6.9207831603        6.5133819880       16.8786812050
 Au         7.1923116366        5.9372632758       21.0427371868
 Au         5.9146530145        7.1931030912       22.9916327857
 Au         8.6700989248        4.4374472266       22.9918635404
 Au         5.9145479967        4.4365522197       22.9919728151
 Au         8.6702039046        7.1929980982       22.9915236342
 Au         1.4795163621        1.4819785692       25.0825124507
 Au         1.4796288180        4.4369785449       25.0821482724
 Au         1.4797413120        7.3929785205       25.0817839708
 Au         4.4355163577        1.4818660610       25.0823954667
 Au         4.4356288136        4.4368660366       25.0820312884
 Au         4.4357413076        7.3928660123       25.0816669869
 Au         7.1935163536        1.4817610888       25.0822863186
 Au         7.1936288095        4.4367610645       25.0819221403
 Au         7.1937413034        7.3927610402       25.0815578388
 Au        10.1495163492        1.4816485806       25.0821693346
 Au        10.1496288051        4.4366485562       25.0818051563
 Au        10.1497412990        7.3926485319       25.0814408548
 Au        13.1055163448        1.4815360723       25.0820523506
 Au        13.1056288007        4.4365360480       25.0816881724
 Au        13.1057412946        7.3925360237       25.0813238708
 Au         0.0015428389        0.0042924069       27.1727530761
 Au         0.0016552948        2.9592923825       27.1723888978
 Au         0.0017677888        5.9152923582       27.1720245963
 Au         2.9575428345        0.0041798986       27.1726360921
 Au         2.9576552904        2.9591798743       27.1722719138
 Au         2.9577677844        5.9151798500       27.1719076123
 Au         5.9135428301        0.0040673904       27.1725191081
 Au         5.9136552860        2.9590673661       27.1721549299
 Au         5.9137677800        5.9150673417       27.1717906283
 Au         8.6715428260        0.0039624182       27.1724099600
 Au         8.6716552819        2.9589623939       27.1720457817
 Au         8.6717677759        5.9149623696       27.1716814802
 Au        11.6275428216        0.0038499100       27.1722929761
 Au        11.6276552775        2.9588498857       27.1719287978
 Au        11.6277677715        5.9148498614       27.1715644962
 Au         1.4796818053        1.4824937120       29.2625124160
 Au         1.4797942612        4.4374936876       29.2621482377
 Au         1.4799067552        7.3934936633       29.2617839362
 Au         4.4356818009        1.4823812037       29.2623954320
 Au         4.4357942568        4.4373811794       29.2620312537
 Au         4.4359067508        7.3933811551       29.2616669522
 Au         7.1936817968        1.4822762316       29.2622862839
 Au         7.1937942527        4.4372762073       29.2619221056
 Au         7.1939067467        7.3932761829       29.2615578041
 Au        10.1496817924        1.4821637233       29.2621693000
 Au        10.1497942483        4.4371636990       29.2618051217
 Au        10.1499067423        7.3931636747       29.2614408201
 Au        13.1056817880        1.4820512151       29.2620523160
 Au        13.1057942439        4.4370511908       29.2616881377
 Au        13.1059067379        7.3930511665       29.2613238362
 Au         0.0017082822        0.0048075496       31.3527530414
 Au         0.0018207381        2.9598075253       31.3523888631
 Au         0.0019332320        5.9158075010       31.3520245616
 Au         2.9577082778        0.0046950414       31.3526360575
 Au         2.9578207337        2.9596950171       31.3522718792
 Au         2.9579332276        5.9156949928       31.3519075776
 Au         5.9137082734        0.0045825332       31.3525190735
 Au         5.9138207293        2.9595825088       31.3521548952
 Au         5.9139332232        5.9155824845       31.3517905937
 Au         8.6717082693        0.0044775610       31.3524099254
 Au         8.6718207252        2.9594775367       31.3520457471
 Au         8.6719332191        5.9154775124       31.3516814456
 Au        11.6277082649        0.0043650528       31.3522929414
 Au        11.6278207208        2.9593650285       31.3519287631
 Au        11.6279332147        5.9153650041       31.3515644616
 Au         1.4798472486        1.4830088547       33.4425123814
 Au         1.4799597045        4.4380088304       33.4421482031
 Au         1.4800721984        7.3940088061       33.4417839015
 Au         4.4358472442        1.4828963465       33.4423953974
 Au         4.4359597001        4.4378963222       33.4420312191
 Au         4.4360721940        7.3938962979       33.4416669176
 Au         7.1938472401        1.4827913743       33.4422862493
 Au         7.1939596960        4.4377913500       33.4419220710
 Au         7.1940721899        7.3937913257       33.4415577695
 Au        10.1498472357        1.4826788661       33.4421692653
 Au        10.1499596916        4.4376788418       33.4418050870
 Au        10.1500721855        7.3936788175       33.4414407855
 Au        13.1058472313        1.4825663579       33.4420522813
 Au        13.1059596872        4.4375663336       33.4416881031
 Au        13.1060721811        7.3935663092       33.4413238015
