     183
 i =     114, E =    -5729.7352780576
 Au         0.0004673692        0.0009437127        0.0007532842
 Au         0.0005798225        2.9559436883        0.0003891140
 Au         0.0006923138        5.9119436640        0.0000248206
 Au         2.9564673648        0.0008312070        0.0006363029
 Au         2.9565798181        2.9558311827        0.0002721327
 Au         2.9566923094        5.9118311584       -0.0000921608
 Au         5.9124673604        0.0007187014        0.0005193215
 Au         5.9125798137        2.9557186771        0.0001551513
 Au         5.9126923050        5.9117186528       -0.0002091421
 Au         8.6704673563        0.0006137317        0.0004101758
 Au         8.6705798096        2.9556137074        0.0000460057
 Au         8.6706923009        5.9116136830       -0.0003182878
 Au        11.6264673519        0.0005012261        0.0002931945
 Au        11.6265798052        2.9555012017       -0.0000709757
 Au        11.6266922965        5.9115011774       -0.0004352691
 Au         1.4786063324        1.4791450133        2.0905126295
 Au         1.4787187857        4.4341449890        2.0901484593
 Au         1.4788312771        7.3901449647        2.0897841659
 Au         4.4346063280        1.4790325077        2.0903956482
 Au         4.4347187813        4.4340324834        2.0900314780
 Au         4.4348312727        7.3900324591        2.0896671845
 Au         7.1926063239        1.4789275380        2.0902865025
 Au         7.1927187772        4.4339275137        2.0899223323
 Au         7.1928312686        7.3899274894        2.0895580389
 Au        10.1486063195        1.4788150324        2.0901695211
 Au        10.1487187728        4.4338150080        2.0898053509
 Au        10.1488312642        7.3898149837        2.0894410575
 Au        13.1046063151        1.4787025267        2.0900525398
 Au        13.1047187684        4.4337025024        2.0896883696
 Au        13.1048312598        7.3897024781        2.0893240761
 Au         0.0006328087        0.0014588440        4.1807532496
 Au         0.0007452620        2.9564588197        4.1803890794
 Au         0.0008577534        5.9124587953        4.1800247860
 Au         2.9566328043        0.0013463384        4.1806362682
 Au         2.9567452576        2.9563463140        4.1802720980
 Au         2.9568577490        5.9123462897        4.1799078046
 Au         5.9126327999        0.0012338327        4.1805192869
 Au         5.9127452532        2.9562338084        4.1801551167
 Au         5.9128577446        5.9122337841        4.1797908232
 Au         8.6706327958        0.0011288630        4.1804101412
 Au         8.6707452491        2.9561288387        4.1800459710
 Au         8.6708577405        5.9121288144        4.1796816776
 Au        11.6266327914        0.0010163574        4.1802931598
 Au        11.6267452447        2.9560163331        4.1799289896
 Au        11.6268577361        5.9120163087        4.1795646962
 Au         1.4787717720        1.4796601447        6.2705125949
 Au         1.4788842253        4.4346601204        6.2701484247
 Au         1.4789967166        7.3906600960        6.2697841312
 Au         4.4347717676        1.4795476390        6.2703956135
 Au         4.4348842209        4.4345476147        6.2700314433
 Au         4.4349967122        7.3905475904        6.2696671499
 Au         7.1927717635        1.4794426693        6.2702864678
 Au         7.1928842168        4.4344426450        6.2699222976
 Au         7.1929967081        7.3904426207        6.2695580042
 Au        10.1487717591        1.4793301637        6.2701694865
 Au        10.1488842124        4.4343301394        6.2698053163
 Au        10.1489967037        7.3903301150        6.2694410228
 Au        13.1047717547        1.4792176581        6.2700525051
 Au        13.1048842080        4.4342176337        6.2696883349
 Au        13.1049966993        7.3902176094        6.2693240415
 Au         0.0007982483        0.0019739753        8.3607532149
 Au         0.0009107016        2.9569739510        8.3603890447
 Au         0.0010231929        5.9129739267        8.3600247513
 Au         2.9567982439        0.0018614697        8.3606362336
 Au         2.9569106972        2.9568614454        8.3602720634
 Au         2.9570231885        5.9128614210        8.3599077699
 Au         5.9127982395        0.0017489640        8.3605192522
 Au         5.9129106928        2.9567489397        8.3601550820
 Au         5.9130231841        5.9127489154        8.3597907886
 Au         8.6707982354        0.0016439943        8.3604101065
 Au         8.6709106887        2.9566439700        8.3600459364
 Au         8.6710231800        5.9126439457        8.3596816429
 Au        11.6267982310        0.0015314887        8.3602931252
 Au        11.6269106843        2.9565314644        8.3599289550
 Au        11.6270231756        5.9125314401        8.3595646616
 Au         1.4789372115        1.4801752760       10.4505125602
 Au         1.4790496648        4.4351752517       10.4501483900
 Au         1.4791621562        7.3911752274       10.4497840966
 Au         4.4349372071        1.4800627704       10.4503955789
 Au         4.4350496604        4.4350627460       10.4500314087
 Au         4.4351621518        7.3910627217       10.4496671152
 Au         7.1929372030        1.4799578006       10.4502864332
 Au         7.1930496563        4.4349577763       10.4499222630
 Au         7.1931621477        7.3909577520       10.4495579696
 Au        10.1489371986        1.4798452950       10.4501694518
 Au        10.1490496519        4.4348452707       10.4498052816
 Au        10.1491621433        7.3908452464       10.4494409882
 Au        13.1049371942        1.4797327894       10.4500524705
 Au        13.1050496475        4.4347327651       10.4496883003
 Au        13.1051621389        7.3907327407       10.4493240068
  N         4.8561644801        5.9132325836       12.0318346076
  N         9.5291686676        5.9150569949       12.0336474113
  N         7.1931697076        5.9361537110       12.0397372686
  H        10.3192210673        5.9184944821       12.6861341141
  H         4.0713536805        5.9182186266       12.6921337283
  C         8.3737257573        5.9393503090       12.7310712111
  C         6.0024595327        5.9414322861       12.7922418203
  N         8.3121871246        5.9783079415       14.0790345809
  N         5.9250332626        5.9854822904       14.1023501447
  H         9.1659168127        5.9758149460       14.6356661870
  C         7.0733382539        6.0414800946       14.8669391829
  N         7.1516825419        6.0423832278       16.1168386876
  H         7.2596944302        6.5895170769       16.9491016305
 Au         7.1923142868        5.9372632048       21.0427371923
 Au         5.9146507644        7.1931084255       22.9916327935
 Au         8.6701020890        4.4374471516       22.9918635431
 Au         5.9145457491        4.4365521422       22.9919728154
 Au         8.6702070663        7.1930034349       22.9915236445
 Au         1.4795163291        1.4819784821       25.0825124389
 Au         1.4796287824        4.4369784578       25.0821482687
 Au         1.4797412738        7.3929784334       25.0817839753
 Au         4.4355163247        1.4818659765       25.0823954576
 Au         4.4356287780        4.4368659521       25.0820312874
 Au         4.4357412694        7.3928659278       25.0816669939
 Au         7.1935163206        1.4817610067       25.0822863119
 Au         7.1936287739        4.4367609824       25.0819221417
 Au         7.1937412653        7.3927609581       25.0815578483
 Au        10.1495163162        1.4816485011       25.0821693305
 Au        10.1496287695        4.4366484768       25.0818051603
 Au        10.1497412609        7.3926484525       25.0814408669
 Au        13.1055163118        1.4815359955       25.0820523492
 Au        13.1056287651        4.4365359712       25.0816881790
 Au        13.1057412565        7.3925359468       25.0813238855
 Au         0.0015428054        0.0042923127       27.1727530590
 Au         0.0016552587        2.9592922884       27.1723888888
 Au         0.0017677501        5.9152922641       27.1720245954
 Au         2.9575428010        0.0041798071       27.1726360776
 Au         2.9576552543        2.9591797828       27.1722719074
 Au         2.9577677457        5.9151797585       27.1719076140
 Au         5.9135427966        0.0040673015       27.1725190963
 Au         5.9136552499        2.9590672771       27.1721549261
 Au         5.9137677413        5.9150672528       27.1717906326
 Au         8.6715427925        0.0039623317       27.1724099506
 Au         8.6716552458        2.9589623074       27.1720457804
 Au         8.6717677372        5.9149622831       27.1716814870
 Au        11.6275427881        0.0038498261       27.1722929692
 Au        11.6276552414        2.9588498018       27.1719287991
 Au        11.6277677328        5.9148497775       27.1715645056
 Au         1.4796817687        1.4824936134       29.2625124043
 Au         1.4797942220        4.4374935891       29.2621482341
 Au         1.4799067134        7.3934935648       29.2617839406
 Au         4.4356817643        1.4823811078       29.2623954229
 Au         4.4357942176        4.4373810835       29.2620312527
 Au         4.4359067090        7.3933810591       29.2616669593
 Au         7.1936817602        1.4822761380       29.2622862772
 Au         7.1937942135        4.4372761137       29.2619221071
 Au         7.1939067048        7.3932760894       29.2615578136
 Au        10.1496817558        1.4821636324       29.2621692959
 Au        10.1497942091        4.4371636081       29.2618051257
 Au        10.1499067004        7.3931635838       29.2614408323
 Au        13.1056817514        1.4820511268       29.2620523145
 Au        13.1057942047        4.4370511025       29.2616881443
 Au        13.1059066960        7.3930510782       29.2613238509
 Au         0.0017082450        0.0048074440       31.3527530244
 Au         0.0018206983        2.9598074197       31.3523888542
 Au         0.0019331896        5.9158073954       31.3520245607
 Au         2.9577082406        0.0046949384       31.3526360430
 Au         2.9578206939        2.9596949141       31.3522718728
 Au         2.9579331852        5.9156948898       31.3519075794
 Au         5.9137082362        0.0045824328       31.3525190616
 Au         5.9138206895        2.9595824085       31.3521548914
 Au         5.9139331808        5.9155823841       31.3517905980
 Au         8.6717082321        0.0044774631       31.3524099160
 Au         8.6718206854        2.9594774387       31.3520457458
 Au         8.6719331767        5.9154774144       31.3516814523
 Au        11.6277082277        0.0043649574       31.3522929346
 Au        11.6278206810        2.9593649331       31.3519287644
 Au        11.6279331723        5.9153649088       31.3515644710
 Au         1.4798472082        1.4830087447       33.4425123696
 Au         1.4799596615        4.4380087204       33.4421481994
 Au         1.4800721529        7.3940086961       33.4417839060
 Au         4.4358472038        1.4828962391       33.4423953883
 Au         4.4359596571        4.4378962148       33.4420312181
 Au         4.4360721485        7.3938961905       33.4416669246
 Au         7.1938471997        1.4827912694       33.4422862426
 Au         7.1939596530        4.4377912451       33.4419220724
 Au         7.1940721444        7.3937912207       33.4415577790
 Au        10.1498471953        1.4826787637       33.4421692612
 Au        10.1499596486        4.4376787394       33.4418050910
 Au        10.1500721400        7.3936787151       33.4414407976
 Au        13.1058471909        1.4825662581       33.4420522799
 Au        13.1059596442        4.4375662338       33.4416881097
 Au        13.1060721356        7.3935662095       33.4413238162
