SIESTA 1.3.7  -- [1.3f1 release] (04 Feb 2004)
Architecture  : mpif90
Compiler flags:  -O3 -check bounds -fp-model strict
PARALLEL version

* Running on   20 nodes in parallel
>> Start of run:  17-NOV-2023  17:23:47

                           ***********************       
                           *  WELCOME TO SIESTA  *       
                           ***********************       

reinit: Reading from standard input
************************** Dump of input data file ****************************
SystemName		     dft_wfn		# Descriptive name of the system
SystemLabel 			dft_wfn		# Short name for naming files
NumberOfAtoms    116
NumberOfSpecies			4               # Number of species
PAO.BasisType			split		
%block ChemicalSpeciesLabel
1 79 Au
2 16 S
3 6  C
4 1  H
%endblock ChemicalSpeciesLabel
%block PAO.BasisSizes
S DZP
C DZP
H DZP
%endblock PAO.BasisSizes
%block PAO.Basis
  Au  2
n=6  0  1
6.500
1.00
n=5  2  1
5.850
1.00
%endblock PAO.Basis
%block PS.lmax
 Au   3
%endblock PS.lmax
LatticeConstant 1.000 Ang
%block LatticeVectors
   8.336     0.000   0.000	  1
  0.000    8.336     0.000   1
  0.000   0.000     33.926  1
%endblock LatticeVectors
AtomicCoordinatesFormat Ang
%block AtomicCoordinatesAndAtomicSpecies
0.0 0.0 0.0 1 Au
0.0 4.168 0.0 1 Au
2.084 2.084 0.0 1 Au
2.084 6.252 0.0 1 Au
4.168 0.0 0.0 1 Au
4.168 4.168 0.0 1 Au
6.252 2.084 0.0 1 Au
6.252 6.252 0.0 1 Au
0.0 2.084 2.084 1 Au
0.0 6.252 2.084 1 Au
2.084 0.0 2.084 1 Au
2.084 4.168 2.084 1 Au
4.168 2.084 2.084 1 Au
4.168 6.252 2.084 1 Au
6.252 0.0 2.084 1 Au
6.252 4.168 2.084 1 Au
0.0 0.0 4.168 1 Au
0.0 4.168 4.168 1 Au
2.084 2.084 4.168 1 Au
2.084 6.252 4.168 1 Au
4.168 0.0 4.168 1 Au
4.168 4.168 4.168 1 Au
6.252 2.084 4.168 1 Au
6.252 6.252 4.168 1 Au
0.0 2.084 6.252 1 Au
0.0 6.252 6.252 1 Au
2.084 0.0 6.252 1 Au
2.084 4.168 6.252 1 Au
4.168 2.084 6.252 1 Au
4.168 6.252 6.252 1 Au
6.252 0.0 6.252 1 Au
6.252 4.168 6.252 1 Au
0.0 0.0 8.336 1 Au
0.0 4.168 8.336 1 Au
2.084 2.084 8.336 1 Au
2.084 6.252 8.336 1 Au
4.168 0.0 8.336 1 Au
4.168 4.168 8.336 1 Au
6.252 2.084 8.336 1 Au
6.252 6.252 8.336 1 Au
0.0 2.084 10.42 1 Au
0.0 6.252 10.42 1 Au
2.084 0.0 10.42 1 Au
2.084 4.168 10.42 1 Au
4.168 2.084 10.42 1 Au
4.168 6.252 10.42 1 Au
6.252 0.0 10.42 1 Au
6.252 4.168 10.42 1 Au
0.0 0.0 12.504 1 Au
0.0 4.168 12.504 1 Au
2.084 2.084 12.504 1 Au
2.084 6.252 12.504 1 Au
4.168 0.0 12.504 1 Au
4.168 4.168 12.504 1 Au
6.252 2.084 12.504 1 Au
6.252 6.252 12.504 1 Au
4.171 2.086 13.79 2 S
4.175 2.089 15.551 3 C
2.073 2.116 15.734 4 H
6.269 2.116 15.74 4 H
2.965 2.095 16.251 3 C
5.373 2.095 16.251 3 C
2.959 2.074 17.674 3 C
5.367 2.074 17.674 3 C
2.063 2.053 18.186 4 H
6.259 2.053 18.192 4 H
4.157 2.08 18.375 3 C
4.171 2.086 20.136 2 S
0.0 0.0 21.422 1 Au
0.0 4.168 21.422 1 Au
2.084 2.084 21.422 1 Au
2.084 6.252 21.422 1 Au
4.168 0.0 21.422 1 Au
4.168 4.168 21.422 1 Au
6.252 2.084 21.422 1 Au
6.252 6.252 21.422 1 Au
0.0 2.084 23.506 1 Au
0.0 6.252 23.506 1 Au
2.084 0.0 23.506 1 Au
2.084 4.168 23.506 1 Au
4.168 2.084 23.506 1 Au
4.168 6.252 23.506 1 Au
6.252 0.0 23.506 1 Au
6.252 4.168 23.506 1 Au
0.0 0.0 25.59 1 Au
0.0 4.168 25.59 1 Au
2.084 2.084 25.59 1 Au
2.084 6.252 25.59 1 Au
4.168 0.0 25.59 1 Au
4.168 4.168 25.59 1 Au
6.252 2.084 25.59 1 Au
6.252 6.252 25.59 1 Au
0.0 2.084 27.674 1 Au
0.0 6.252 27.674 1 Au
2.084 0.0 27.674 1 Au
2.084 4.168 27.674 1 Au
4.168 2.084 27.674 1 Au
4.168 6.252 27.674 1 Au
6.252 0.0 27.674 1 Au
6.252 4.168 27.674 1 Au
0.0 0.0 29.758 1 Au
0.0 4.168 29.758 1 Au
2.084 2.084 29.758 1 Au
2.084 6.252 29.758 1 Au
4.168 0.0 29.758 1 Au
4.168 4.168 29.758 1 Au
6.252 2.084 29.758 1 Au
6.252 6.252 29.758 1 Au
0.0 2.084 31.842 1 Au
0.0 6.252 31.842 1 Au
2.084 0.0 31.842 1 Au
2.084 4.168 31.842 1 Au
4.168 2.084 31.842 1 Au
4.168 6.252 31.842 1 Au
6.252 0.0 31.842 1 Au
6.252 4.168 31.842 1 Au
%endblock AtomicCoordinatesAndAtomicSpecies
%block kgrid_Monkhorst_Pack
  2   0   0     0.0
  0   2   0     0.0
  0   0   1     0.0
%endblock kgrid_Monkhorst_Pack
xc.functional		LDA		# 'LDA', 'GGA'
xc.authors 	 		CA		# 'CA'='PZ', 'PW92', 'PBE'
SpinPolarized			F		# 'T', 'F'		
#FixSpin           F
#TotalSpin        0.0
NonCollinearSpin		F		# 'T', 'F'
MeshCutoff 	 		    200 Ry		# Equivalent plane wave cutoff for the grid
MaxSCFIterations		200
DM.MixingWeight			0.1
DM.NumberPulay			4	# Pulay convergency accelerator
DM.MixSCF1			    T
MixHamiltonian      T
DM.PulayOnFile			F		# Store in memory ('F') or in files ('T')
#DM.NumberKick         30
#DM.KickMixingWeight   0.1
DM.Tolerance 		1.0E-4
NeglNonOverlapInt		F		# 'F'=do not neglect
SolutionMethod			diagon
ElectronicTemperature		300 K		# Default value
DM.UseSaveDM 			T
#MD.UseSaveXV			T
#MD.UseSaveCG			T
WriteForces      T
WriteCoorXmol			T		# Write Atoms coordinates
SaveElectrostaticPotential      T
#SaveHS				T		# Save the Hamiltonian and Overlap matrices
SaveRho				T		# Save the valence pseudocharge density
#SaveDeltaRho			T
#WriteDenchar			T		# Write Denchar output
WriteMullikenPop		0 #write mulliken population of aromic and orbital charges
************************** End of input data file *****************************

reinit: -----------------------------------------------------------------------
reinit: System Name: dft_wfn                                                    
reinit: -----------------------------------------------------------------------
reinit: System Label: dft_wfn             
reinit: -----------------------------------------------------------------------

initatom: Reading input for the pseudopotentials and atomic orbitals ----------
 Species number:            1  Label: Au Atomic number:          79
 Species number:            2  Label: S Atomic number:          16
 Species number:            3  Label: C Atomic number:           6
 Species number:            4  Label: H Atomic number:           1
Ground state valence configuration:   6s01  5d10
Reading pseudopotential information in formatted form from Au.psf
Ground state valence configuration:   3s02  3p04
Reading pseudopotential information in formatted form from S.psf
Ground state valence configuration:   2s02  2p02
Reading pseudopotential information in formatted form from C.psf
Ground state valence configuration:   1s01
Reading pseudopotential information in formatted form from H.psf
resizes: Read basis size for species S = dzp                 
resizes: Read basis size for species C = dzp                 
resizes: Read basis size for species H = dzp                 
relmxkb: Read Max KB Ang. Momentum=    3 for species Au
 Warning: Empty PAO shell. l =           1
 Will have a KB projector anyway...
For S, standard SIESTA heuristics set lmxkb to 3
 (one more than the basis l, including polarization orbitals).
Use PS.lmax or PS.KBprojectors blocks to override.
For C, standard SIESTA heuristics set lmxkb to 3
 (one more than the basis l, including polarization orbitals).
Use PS.lmax or PS.KBprojectors blocks to override.
For H, standard SIESTA heuristics set lmxkb to 2
 (one more than the basis l, including polarization orbitals).
Use PS.lmax or PS.KBprojectors blocks to override.

<basis_specs>
===============================================================================
Au                   Z=  79    Mass=  196.97        Charge=  0.0000    
Lmxo=2 Lmxkb=3     BasisType=split      Semic=F
L=0  Nsemic=0  Cnfigmx=6
          n=1  nzeta=1  polorb=0
               vcte:    0.0000    
               rinn:    0.0000    
                rcs:    6.5000    
            lambdas:    1.0000    
L=1  Nsemic=0  Cnfigmx=6
L=2  Nsemic=0  Cnfigmx=5
          n=1  nzeta=1  polorb=0
               vcte:    0.0000    
               rinn:    0.0000    
                rcs:    5.8500    
            lambdas:    1.0000    
-------------------------------------------------------------------------------
L=0  Nkbl=1  erefs: 0.17977+309
L=1  Nkbl=1  erefs: 0.17977+309
L=2  Nkbl=1  erefs: 0.17977+309
L=3  Nkbl=1  erefs: 0.17977+309
===============================================================================
</basis_specs>

atom: Called for Au  (Z =  79)

read_vps: Pseudopotential generation method:
read_vps: ATM3      Troullier-Martins                       

read_vps: Pseudopotential generated from a relativistic atomic calculation
read_vps: There are spin-orbit pseudopotentials available

read_vps: Valence configuration (pseudopotential and basis set generation):
6s( 1.00) rc: 2.18
6p( 0.00) rc: 2.47
5d(10.00) rc: 1.79
5f( 0.00) rc: 2.00
Total valence charge:   11.00000

read_vps: Pseudopotential includes a core correction:
read_vps: Pseudo-core for xc-correction
comcore: Pseudo-core radius Rcore=  4.027091

xc_check: Exchange-correlation functional:
xc_check: Ceperley-Alder
V l=0 = -2*Zval/r beyond r=  2.9833
V l=1 = -2*Zval/r beyond r=  2.9833
V l=2 = -2*Zval/r beyond r=  2.9833
V l=3 = -2*Zval/r beyond r=  2.9833
All V_l potentials equal beyond r=  2.4425
This should be close to max(r_c) in ps generation
All pots = -2*Zval/r beyond r=  2.9833

VLOCAL1: 99.0% of the norm of Vloc inside      7.276 Ry
VLOCAL1: 99.9% of the norm of Vloc inside     16.582 Ry
atom: Maximum radius for 4*pi*r*r*local-pseudopot. charge    2.94627
atom: Maximum radius for r*vlocal+2*Zval:    2.60007
GHOST: No ghost state for L =  0
GHOST: No ghost state for L =  1
GHOST: No ghost state for L =  2
GHOST: No ghost state for L =  3

KBgen: Kleinman-Bylander projectors: 
   l= 0   rc=  3.175745   el= -0.445638   Ekb=  5.072790   kbcos=  0.276607
   l= 1   rc=  3.256140   el= -0.066324   Ekb=  2.703235   kbcos=  0.227171
   l= 2   rc=  3.020861   el= -0.526103   Ekb= -4.704026   kbcos= -0.643795
   l= 3   rc=  3.466145   el=  0.003438   Ekb= -2.516122   kbcos= -0.010529

KBgen: Total number of  Kleinman-Bylander projectors:   16
atom: -------------------------------------------------------------------------

atom: SANKEY-TYPE ORBITALS:

SPLIT: Orbitals with angular momentum L= 0

SPLIT: Basis orbitals for state 6s

   izeta = 1
                 lambda =    1.000000
                     rc =    6.557093
                 energy =   -0.435455
                kinetic =    0.389259
    potential(screened) =   -0.824714
       potential(ionic) =   -8.467175

SPLIT: Orbitals with angular momentum L= 2

SPLIT: Basis orbitals for state 5d

   izeta = 1
                 lambda =    1.000000
                     rc =    5.933100
                 energy =   -0.524775
                kinetic =    4.913203
    potential(screened) =   -5.437978
       potential(ionic) =  -15.883506
atom: Total number of Sankey-type orbitals:  6

atm_pop: Valence configuration(local Pseudopot. screening):
 6s( 1.00)                                                            
 6p( 0.00)                                                            
 5d(10.00)                                                            
Vna: chval, zval:   11.00000  11.00000

Vna:  Cut-off radius for the neutral-atom potential:   6.557093

atom: _________________________________________________________________________

<basis_specs>
===============================================================================
S                    Z=  16    Mass=  32.070        Charge=  0.0000    
Lmxo=1 Lmxkb=3     BasisType=split      Semic=F
L=0  Nsemic=0  Cnfigmx=3
          n=1  nzeta=2  polorb=0
               vcte:    0.0000    
               rinn:    0.0000    
                rcs:    0.0000      0.0000    
            lambdas:    1.0000      1.0000    
L=1  Nsemic=0  Cnfigmx=3
          n=1  nzeta=2  polorb=1
               vcte:    0.0000    
               rinn:    0.0000    
                rcs:    0.0000      0.0000    
            lambdas:    1.0000      1.0000    
-------------------------------------------------------------------------------
L=0  Nkbl=1  erefs: 0.17977+309
L=1  Nkbl=1  erefs: 0.17977+309
L=2  Nkbl=1  erefs: 0.17977+309
L=3  Nkbl=1  erefs: 0.17977+309
===============================================================================
</basis_specs>

atom: Called for S   (Z =  16)

read_vps: Pseudopotential generation method:
read_vps: ATM3      Troullier-Martins                       

read_vps: Valence configuration (pseudopotential and basis set generation):
3s( 2.00) rc: 1.69
3p( 4.00) rc: 1.69
3d( 0.00) rc: 1.69
4f( 0.00) rc: 1.69
read_vps: Spin-orbit interaction is not included in this calculation
Total valence charge:    6.00000

xc_check: Exchange-correlation functional:
xc_check: Ceperley-Alder
V l=0 = -2*Zval/r beyond r=  2.0185
V l=1 = -2*Zval/r beyond r=  2.0185
V l=2 = -2*Zval/r beyond r=  2.0185
V l=3 = -2*Zval/r beyond r=  2.0185
All V_l potentials equal beyond r=  1.6733
This should be close to max(r_c) in ps generation
All pots = -2*Zval/r beyond r=  2.0185

VLOCAL1: 99.0% of the norm of Vloc inside     15.502 Ry
VLOCAL1: 99.9% of the norm of Vloc inside     35.330 Ry
atom: Maximum radius for 4*pi*r*r*local-pseudopot. charge    2.01846
atom: Maximum radius for r*vlocal+2*Zval:    1.75914
GHOST: No ghost state for L =  0
GHOST: No ghost state for L =  1
GHOST: No ghost state for L =  2
GHOST: No ghost state for L =  3

KBgen: Kleinman-Bylander projectors: 
   l= 0   rc=  2.203046   el= -1.261894   Ekb=  7.109550   kbcos=  0.344623
   l= 1   rc=  2.287235   el= -0.523623   Ekb=  2.800023   kbcos=  0.321647
   l= 2   rc=  2.345140   el=  0.002354   Ekb= -3.743884   kbcos= -0.046414
   l= 3   rc=  2.591797   el=  0.003460   Ekb= -1.010985   kbcos= -0.002968

KBgen: Total number of  Kleinman-Bylander projectors:   16
atom: -------------------------------------------------------------------------

atom: SANKEY-TYPE ORBITALS:
atom: Selected multiple-zeta basis: split     

SPLIT: Orbitals with angular momentum L= 0

SPLIT: Basis orbitals for state 3s

SPLIT: PAO cut-off radius determinated from an
SPLIT: energy shift=  0.020000 Ry

   izeta = 1
                 lambda =    1.000000
                     rc =    4.167740
                 energy =   -1.243381
                kinetic =    0.871454
    potential(screened) =   -2.114835
       potential(ionic) =   -7.151655

   izeta = 2
                 rmatch =    3.498614
              splitnorm =    0.150000
                 energy =   -1.090782
                kinetic =    1.336541
    potential(screened) =   -2.427323
       potential(ionic) =   -7.698399

SPLIT: Orbitals with angular momentum L= 1

SPLIT: Basis orbitals for state 3p

SPLIT: PAO cut-off radius determinated from an
SPLIT: energy shift=  0.020000 Ry

   izeta = 1
                 lambda =    1.000000
                     rc =    5.090524
                 energy =   -0.505955
                kinetic =    1.510143
    potential(screened) =   -2.016098
       potential(ionic) =   -6.693956

   izeta = 2
                 rmatch =    3.818549
              splitnorm =    0.150000
                 energy =   -0.355542
                kinetic =    2.185585
    potential(screened) =   -2.541127
       potential(ionic) =   -7.622701

POLgen: Perturbative polarization orbital with L=  2

POLgen: Polarization orbital for state 3p

   izeta = 1
                     rc =    5.090524
                 energy =    0.726673
                kinetic =    2.184032
    potential(screened) =   -1.457358
       potential(ionic) =   -5.701800
atom: Total number of Sankey-type orbitals: 13

atm_pop: Valence configuration(local Pseudopot. screening):
 3s( 2.00)                                                            
 3p( 4.00)                                                            
Vna: chval, zval:    6.00000   6.00000

Vna:  Cut-off radius for the neutral-atom potential:   5.090524

atom: _________________________________________________________________________

<basis_specs>
===============================================================================
C                    Z=   6    Mass=  12.010        Charge=  0.0000    
Lmxo=1 Lmxkb=3     BasisType=split      Semic=F
L=0  Nsemic=0  Cnfigmx=2
          n=1  nzeta=2  polorb=0
               vcte:    0.0000    
               rinn:    0.0000    
                rcs:    0.0000      0.0000    
            lambdas:    1.0000      1.0000    
L=1  Nsemic=0  Cnfigmx=2
          n=1  nzeta=2  polorb=1
               vcte:    0.0000    
               rinn:    0.0000    
                rcs:    0.0000      0.0000    
            lambdas:    1.0000      1.0000    
-------------------------------------------------------------------------------
L=0  Nkbl=1  erefs: 0.17977+309
L=1  Nkbl=1  erefs: 0.17977+309
L=2  Nkbl=1  erefs: 0.17977+309
L=3  Nkbl=1  erefs: 0.17977+309
===============================================================================
</basis_specs>

atom: Called for C   (Z =   6)

read_vps: Pseudopotential generation method:
read_vps: ATM3      Troullier-Martins                       

read_vps: Valence configuration (pseudopotential and basis set generation):
2s( 2.00) rc: 1.25
2p( 2.00) rc: 1.25
3d( 0.00) rc: 1.25
4f( 0.00) rc: 1.25
read_vps: Spin-orbit interaction is not included in this calculation
Total valence charge:    4.00000

xc_check: Exchange-correlation functional:
xc_check: Ceperley-Alder
V l=0 = -2*Zval/r beyond r=  1.3951
V l=1 = -2*Zval/r beyond r=  1.3777
V l=2 = -2*Zval/r beyond r=  1.3777
V l=3 = -2*Zval/r beyond r=  1.3777
All V_l potentials equal beyond r=  1.2311
This should be close to max(r_c) in ps generation
All pots = -2*Zval/r beyond r=  1.3951

VLOCAL1: 99.0% of the norm of Vloc inside     28.641 Ry
VLOCAL1: 99.9% of the norm of Vloc inside     65.273 Ry
atom: Maximum radius for 4*pi*r*r*local-pseudopot. charge    1.48507
atom: Maximum radius for r*vlocal+2*Zval:    1.27815
GHOST: No ghost state for L =  0
GHOST: No ghost state for L =  1
GHOST: No ghost state for L =  2
GHOST: No ghost state for L =  3

KBgen: Kleinman-Bylander projectors: 
   l= 0   rc=  1.600766   el= -1.001946   Ekb=  7.816946   kbcos=  0.279978
   l= 1   rc=  1.620907   el= -0.398597   Ekb= -4.829535   kbcos= -0.287433
   l= 2   rc=  1.836783   el=  0.002326   Ekb= -1.327964   kbcos= -0.005365
   l= 3   rc=  1.979871   el=  0.003420   Ekb= -0.522285   kbcos= -0.000569

KBgen: Total number of  Kleinman-Bylander projectors:   16
atom: -------------------------------------------------------------------------

atom: SANKEY-TYPE ORBITALS:
atom: Selected multiple-zeta basis: split     

SPLIT: Orbitals with angular momentum L= 0

SPLIT: Basis orbitals for state 2s

SPLIT: PAO cut-off radius determinated from an
SPLIT: energy shift=  0.020000 Ry

   izeta = 1
                 lambda =    1.000000
                     rc =    4.191849
                 energy =   -0.983900
                kinetic =    0.918801
    potential(screened) =   -1.902702
       potential(ionic) =   -5.506899

   izeta = 2
                 rmatch =    3.431921
              splitnorm =    0.150000
                 energy =   -0.849361
                kinetic =    1.377262
    potential(screened) =   -2.226623
       potential(ionic) =   -6.060758

SPLIT: Orbitals with angular momentum L= 1

SPLIT: Basis orbitals for state 2p

SPLIT: PAO cut-off radius determinated from an
SPLIT: energy shift=  0.020000 Ry

   izeta = 1
                 lambda =    1.000000
                     rc =    4.870301
                 energy =   -0.379088
                kinetic =    2.614064
    potential(screened) =   -2.993152
       potential(ionic) =   -6.506293

   izeta = 2
                 rmatch =    3.475094
              splitnorm =    0.150000
                 energy =   -0.215528
                kinetic =    3.940460
    potential(screened) =   -4.155988
       potential(ionic) =   -8.054000

POLgen: Perturbative polarization orbital with L=  2

POLgen: Polarization orbital for state 2p

   izeta = 1
                     rc =    4.870301
                 energy =    1.279486
                kinetic =    2.608016
    potential(screened) =   -1.328529
       potential(ionic) =   -4.267494
atom: Total number of Sankey-type orbitals: 13

atm_pop: Valence configuration(local Pseudopot. screening):
 2s( 2.00)                                                            
 2p( 2.00)                                                            
Vna: chval, zval:    4.00000   4.00000

Vna:  Cut-off radius for the neutral-atom potential:   4.870301

atom: _________________________________________________________________________

<basis_specs>
===============================================================================
H                    Z=   1    Mass=  1.0100        Charge=  0.0000    
Lmxo=0 Lmxkb=2     BasisType=split      Semic=F
L=0  Nsemic=0  Cnfigmx=1
          n=1  nzeta=2  polorb=1
               vcte:    0.0000    
               rinn:    0.0000    
                rcs:    0.0000      0.0000    
            lambdas:    1.0000      1.0000    
-------------------------------------------------------------------------------
L=0  Nkbl=1  erefs: 0.17977+309
L=1  Nkbl=1  erefs: 0.17977+309
L=2  Nkbl=1  erefs: 0.17977+309
===============================================================================
</basis_specs>

atom: Called for H   (Z =   1)

read_vps: Pseudopotential generation method:
read_vps: ATM3      Troullier-Martins                       

read_vps: Valence configuration (pseudopotential and basis set generation):
1s( 1.00) rc: 1.25
2p( 0.00) rc: 1.25
3d( 0.00) rc: 1.25
read_vps: Spin-orbit interaction is not included in this calculation
Total valence charge:    1.00000

xc_check: Exchange-correlation functional:
xc_check: Ceperley-Alder
V l=0 = -2*Zval/r beyond r=  1.2343
V l=1 = -2*Zval/r beyond r=  1.2189
V l=2 = -2*Zval/r beyond r=  1.2189
All V_l potentials equal beyond r=  1.2343
This should be close to max(r_c) in ps generation
All pots = -2*Zval/r beyond r=  1.2343

VLOCAL1: 99.0% of the norm of Vloc inside     28.493 Ry
VLOCAL1: 99.9% of the norm of Vloc inside     64.935 Ry
atom: Maximum radius for 4*pi*r*r*local-pseudopot. charge    1.45251
atom: Maximum radius for r*vlocal+2*Zval:    1.21892
GHOST: No ghost state for L =  0
GHOST: No ghost state for L =  1
GHOST: No ghost state for L =  2

KBgen: Kleinman-Bylander projectors: 
   l= 0   rc=  1.364359   el= -0.467325   Ekb= -2.005361   kbcos= -0.336422
   l= 1   rc=  1.434438   el=  0.001430   Ekb= -0.501708   kbcos= -0.021697
   l= 2   rc=  1.470814   el=  0.002365   Ekb= -0.190555   kbcos= -0.002281

KBgen: Total number of  Kleinman-Bylander projectors:    9
atom: -------------------------------------------------------------------------

atom: SANKEY-TYPE ORBITALS:
atom: Selected multiple-zeta basis: split     

SPLIT: Orbitals with angular momentum L= 0

SPLIT: Basis orbitals for state 1s

SPLIT: PAO cut-off radius determinated from an
SPLIT: energy shift=  0.020000 Ry

   izeta = 1
                 lambda =    1.000000
                     rc =    4.828263
                 energy =   -0.449375
                kinetic =    0.929372
    potential(screened) =   -1.378747
       potential(ionic) =   -1.915047

   izeta = 2
                 rmatch =    3.854947
              splitnorm =    0.150000
                 energy =   -0.335649
                kinetic =    1.505971
    potential(screened) =   -1.841620
       potential(ionic) =   -2.413776

POLgen: Perturbative polarization orbital with L=  1

POLgen: Polarization orbital for state 1s

   izeta = 1
                     rc =    4.828263
                 energy =    0.706972
                kinetic =    1.396397
    potential(screened) =   -0.689424
       potential(ionic) =   -1.169792
atom: Total number of Sankey-type orbitals:  5

atm_pop: Valence configuration(local Pseudopot. screening):
 1s( 1.00)                                                            
Vna: chval, zval:    1.00000   1.00000

Vna:  Cut-off radius for the neutral-atom potential:   4.828263

atom: _________________________________________________________________________

prinput: Basis input ----------------------------------------------------------

PAO.BasisType split     

%block ChemicalSpeciesLabel
    1   79 Au                      # Species index, atomic number, species label
    2   16 S                       # Species index, atomic number, species label
    3    6 C                       # Species index, atomic number, species label
    4    1 H                       # Species index, atomic number, species label
%endblock ChemicalSpeciesLabel

%block PAO.Basis                 # Define Basis set
Au          2                    # Species label, number of l-shells
 n=6   0   1                         # n, l, Nzeta 
   6.557   
   1.000   
 n=5   2   1                         # n, l, Nzeta 
   5.933   
   1.000   
S           2                    # Species label, number of l-shells
 n=3   0   2                         # n, l, Nzeta 
   4.168      3.499   
   1.000      1.000   
 n=3   1   2 P   1                   # n, l, Nzeta, Polarization, NzetaPol
   5.091      3.819   
   1.000      1.000   
C           2                    # Species label, number of l-shells
 n=2   0   2                         # n, l, Nzeta 
   4.192      3.432   
   1.000      1.000   
 n=2   1   2 P   1                   # n, l, Nzeta, Polarization, NzetaPol
   4.870      3.475   
   1.000      1.000   
H           1                    # Species label, number of l-shells
 n=1   0   2 P   1                   # n, l, Nzeta, Polarization, NzetaPol
   4.828      3.855   
   1.000      1.000   
%endblock PAO.Basis

prinput: ----------------------------------------------------------------------


siesta: ******************** Simulation parameters ****************************
siesta:
siesta: The following are some of the parameters of the simulation.
siesta: A complete list of the parameters used, including defect values,
siesta: can be found in file out.fdf
siesta:
coor:   Atomic-coordinates input format  =     Cartesian coordinates
coor:                                          (in Angstroms)
redata: Number of spin components        =     1
redata: SpinOrbit                        =     0
redata: Long output                      =     F
redata: Number of Atomic Species         =     4
redata: Charge density info will appear in .RHO file
redata: Write Mulliken Pop.              =     NO
redata: Write Hamilton Pop.              =     NO
redata: Mesh Cutoff                      =   200.0000  Ry
redata: Net charge of the system         =     0.0000 |e|
redata: Max. number of SCF Iter          =   200
redata: One Pulay mixing every           =     4 iterations
redata: Mix DM in first SCF step ?       =     T
redata: Write Pulay info on disk?        =     F
redata: New DM Mixing Weight             =     0.1000
redata: No kicks to SCF
redata: DM Mixing Weight for Kicks       =     0.5000
redata: DM Tolerance for SCF             =     0.000100
redata: Use continuation files for DM    =     T
redata: Neglect nonoverlap interactions  =     F
redata: Method of Calculation            =     Diagonalization
redata: Divide and Conquer               =     F
redata: Electronic Temperature           =     0.0019  Ry
redata: Fix the spin of the system       =     F
redata: Dynamics option                  =     CG coord. optimization
redata: Variable cell                    =     F
redata: Use continuation files for CG    =     F
redata: Maximum number of CG moves       =     0
redata: Max atomic displ per move        =     0.2000  Bohr
redata: Force tolerance                  =     0.0016  Ry/Bohr
redata: ***********************************************************************

siesta: Atomic coordinates (Bohr) and species
siesta:      0.00000   0.00000   0.00000  1        1
siesta:      0.00000   7.87638   0.00000  1        2
siesta:      3.93819   3.93819   0.00000  1        3
siesta:      3.93819  11.81457   0.00000  1        4
siesta:      7.87638   0.00000   0.00000  1        5
siesta:      7.87638   7.87638   0.00000  1        6
siesta:     11.81457   3.93819   0.00000  1        7
siesta:     11.81457  11.81457   0.00000  1        8
siesta:      0.00000   3.93819   3.93819  1        9
siesta:      0.00000  11.81457   3.93819  1       10
siesta:      3.93819   0.00000   3.93819  1       11
siesta:      3.93819   7.87638   3.93819  1       12
siesta:      7.87638   3.93819   3.93819  1       13
siesta:      7.87638  11.81457   3.93819  1       14
siesta:     11.81457   0.00000   3.93819  1       15
siesta:     11.81457   7.87638   3.93819  1       16
siesta:      0.00000   0.00000   7.87638  1       17
siesta:      0.00000   7.87638   7.87638  1       18
siesta:      3.93819   3.93819   7.87638  1       19
siesta:      3.93819  11.81457   7.87638  1       20
siesta:      7.87638   0.00000   7.87638  1       21
siesta:      7.87638   7.87638   7.87638  1       22
siesta:     11.81457   3.93819   7.87638  1       23
siesta:     11.81457  11.81457   7.87638  1       24
siesta:      0.00000   3.93819  11.81457  1       25
siesta:      0.00000  11.81457  11.81457  1       26
siesta:      3.93819   0.00000  11.81457  1       27
siesta:      3.93819   7.87638  11.81457  1       28
siesta:      7.87638   3.93819  11.81457  1       29
siesta:      7.87638  11.81457  11.81457  1       30
siesta:     11.81457   0.00000  11.81457  1       31
siesta:     11.81457   7.87638  11.81457  1       32
siesta:      0.00000   0.00000  15.75276  1       33
siesta:      0.00000   7.87638  15.75276  1       34
siesta:      3.93819   3.93819  15.75276  1       35
siesta:      3.93819  11.81457  15.75276  1       36
siesta:      7.87638   0.00000  15.75276  1       37
siesta:      7.87638   7.87638  15.75276  1       38
siesta:     11.81457   3.93819  15.75276  1       39
siesta:     11.81457  11.81457  15.75276  1       40
siesta:      0.00000   3.93819  19.69095  1       41
siesta:      0.00000  11.81457  19.69095  1       42
siesta:      3.93819   0.00000  19.69095  1       43
siesta:      3.93819   7.87638  19.69095  1       44
siesta:      7.87638   3.93819  19.69095  1       45
siesta:      7.87638  11.81457  19.69095  1       46
siesta:     11.81457   0.00000  19.69095  1       47
siesta:     11.81457   7.87638  19.69095  1       48
siesta:      0.00000   0.00000  23.62914  1       49
siesta:      0.00000   7.87638  23.62914  1       50
siesta:      3.93819   3.93819  23.62914  1       51
siesta:      3.93819  11.81457  23.62914  1       52
siesta:      7.87638   0.00000  23.62914  1       53
siesta:      7.87638   7.87638  23.62914  1       54
siesta:     11.81457   3.93819  23.62914  1       55
siesta:     11.81457  11.81457  23.62914  1       56
siesta:      7.88205   3.94197  26.05933  2       57
siesta:      7.88961   3.94764  29.38714  3       58
siesta:      3.91740   3.99866  29.73296  4       59
siesta:     11.84670   3.99866  29.74430  4       60
siesta:      5.60304   3.95898  30.70995  3       61
siesta:     10.15350   3.95898  30.70995  3       62
siesta:      5.59170   3.91929  33.39903  3       63
siesta:     10.14216   3.91929  33.39903  3       64
siesta:      3.89851   3.87961  34.36657  4       65
siesta:     11.82780   3.87961  34.37791  4       66
siesta:      7.85559   3.93063  34.72373  3       67
siesta:      7.88205   3.94197  38.05154  2       68
siesta:      0.00000   0.00000  40.48173  1       69
siesta:      0.00000   7.87638  40.48173  1       70
siesta:      3.93819   3.93819  40.48173  1       71
siesta:      3.93819  11.81457  40.48173  1       72
siesta:      7.87638   0.00000  40.48173  1       73
siesta:      7.87638   7.87638  40.48173  1       74
siesta:     11.81457   3.93819  40.48173  1       75
siesta:     11.81457  11.81457  40.48173  1       76
siesta:      0.00000   3.93819  44.41992  1       77
siesta:      0.00000  11.81457  44.41992  1       78
siesta:      3.93819   0.00000  44.41992  1       79
siesta:      3.93819   7.87638  44.41992  1       80
siesta:      7.87638   3.93819  44.41992  1       81
siesta:      7.87638  11.81457  44.41992  1       82
siesta:     11.81457   0.00000  44.41992  1       83
siesta:     11.81457   7.87638  44.41992  1       84
siesta:      0.00000   0.00000  48.35811  1       85
siesta:      0.00000   7.87638  48.35811  1       86
siesta:      3.93819   3.93819  48.35811  1       87
siesta:      3.93819  11.81457  48.35811  1       88
siesta:      7.87638   0.00000  48.35811  1       89
siesta:      7.87638   7.87638  48.35811  1       90
siesta:     11.81457   3.93819  48.35811  1       91
siesta:     11.81457  11.81457  48.35811  1       92
siesta:      0.00000   3.93819  52.29630  1       93
siesta:      0.00000  11.81457  52.29630  1       94
siesta:      3.93819   0.00000  52.29630  1       95
siesta:      3.93819   7.87638  52.29630  1       96
siesta:      7.87638   3.93819  52.29630  1       97
siesta:      7.87638  11.81457  52.29630  1       98
siesta:     11.81457   0.00000  52.29630  1       99
siesta:     11.81457   7.87638  52.29630  1      100
siesta:      0.00000   0.00000  56.23449  1      101
siesta:      0.00000   7.87638  56.23449  1      102
siesta:      3.93819   3.93819  56.23449  1      103
siesta:      3.93819  11.81457  56.23449  1      104
siesta:      7.87638   0.00000  56.23449  1      105
siesta:      7.87638   7.87638  56.23449  1      106
siesta:     11.81457   3.93819  56.23449  1      107
siesta:     11.81457  11.81457  56.23449  1      108
siesta:      0.00000   3.93819  60.17268  1      109
siesta:      0.00000  11.81457  60.17268  1      110
siesta:      3.93819   0.00000  60.17268  1      111
siesta:      3.93819   7.87638  60.17268  1      112
siesta:      7.87638   3.93819  60.17268  1      113
siesta:      7.87638  11.81457  60.17268  1      114
siesta:     11.81457   0.00000  60.17268  1      115
siesta:     11.81457   7.87638  60.17268  1      116

initatomlists: Number of atoms, orbitals, and projectors:    116   748  1828

siesta: System type = bulk      
 Nodes, Orbitals          20         748
 blocksizedefault           8

* ProcessorY, Blocksize:    4   8


siesta: k-grid: Number of k-points =     4
siesta: k-grid: Cutoff             =     8.336 Ang
siesta: k-grid: Supercell and displacements
siesta: k-grid:    2   0   0      0.000
siesta: k-grid:    0   2   0      0.000
siesta: k-grid:    0   0   1      0.000
siesta: overlap:  rmaxh   veclen  direction
siesta: overlap:  20.0465 15.7528   1
siesta: overlap:  rmaxh   veclen  direction
siesta: overlap:  20.0465 15.7528   2
siesta: overlap:  rmaxh   veclen  direction
siesta: overlap:  20.0465 64.1109   3
 label:           1 Au                             1 s      
 label:           2 Au                             1 dxy    
 label:           3 Au                             1 dyz    
 label:           4 Au                             1 dz2    
 label:           5 Au                             1 dxz    
 label:           6 Au                             1 dx2-y2 
 label:           7 Au                             2 s      
 label:           8 Au                             2 dxy    
 label:           9 Au                             2 dyz    
 label:          10 Au                             2 dz2    
 label:          11 Au                             2 dxz    
 label:          12 Au                             2 dx2-y2 
 label:          13 Au                             3 s      
 label:          14 Au                             3 dxy    
 label:          15 Au                             3 dyz    
 label:          16 Au                             3 dz2    
 label:          17 Au                             3 dxz    
 label:          18 Au                             3 dx2-y2 
 label:          19 Au                             4 s      
 label:          20 Au                             4 dxy    
 label:          21 Au                             4 dyz    
 label:          22 Au                             4 dz2    
 label:          23 Au                             4 dxz    
 label:          24 Au                             4 dx2-y2 
 label:          25 Au                             5 s      
 label:          26 Au                             5 dxy    
 label:          27 Au                             5 dyz    
 label:          28 Au                             5 dz2    
 label:          29 Au                             5 dxz    
 label:          30 Au                             5 dx2-y2 
 label:          31 Au                             6 s      
 label:          32 Au                             6 dxy    
 label:          33 Au                             6 dyz    
 label:          34 Au                             6 dz2    
 label:          35 Au                             6 dxz    
 label:          36 Au                             6 dx2-y2 
 label:          37 Au                             7 s      
 label:          38 Au                             7 dxy    
 label:          39 Au                             7 dyz    
 label:          40 Au                             7 dz2    
 label:          41 Au                             7 dxz    
 label:          42 Au                             7 dx2-y2 
 label:          43 Au                             8 s      
 label:          44 Au                             8 dxy    
 label:          45 Au                             8 dyz    
 label:          46 Au                             8 dz2    
 label:          47 Au                             8 dxz    
 label:          48 Au                             8 dx2-y2 
 label:          49 Au                             9 s      
 label:          50 Au                             9 dxy    
 label:          51 Au                             9 dyz    
 label:          52 Au                             9 dz2    
 label:          53 Au                             9 dxz    
 label:          54 Au                             9 dx2-y2 
 label:          55 Au                            10 s      
 label:          56 Au                            10 dxy    
 label:          57 Au                            10 dyz    
 label:          58 Au                            10 dz2    
 label:          59 Au                            10 dxz    
 label:          60 Au                            10 dx2-y2 
 label:          61 Au                            11 s      
 label:          62 Au                            11 dxy    
 label:          63 Au                            11 dyz    
 label:          64 Au                            11 dz2    
 label:          65 Au                            11 dxz    
 label:          66 Au                            11 dx2-y2 
 label:          67 Au                            12 s      
 label:          68 Au                            12 dxy    
 label:          69 Au                            12 dyz    
 label:          70 Au                            12 dz2    
 label:          71 Au                            12 dxz    
 label:          72 Au                            12 dx2-y2 
 label:          73 Au                            13 s      
 label:          74 Au                            13 dxy    
 label:          75 Au                            13 dyz    
 label:          76 Au                            13 dz2    
 label:          77 Au                            13 dxz    
 label:          78 Au                            13 dx2-y2 
 label:          79 Au                            14 s      
 label:          80 Au                            14 dxy    
 label:          81 Au                            14 dyz    
 label:          82 Au                            14 dz2    
 label:          83 Au                            14 dxz    
 label:          84 Au                            14 dx2-y2 
 label:          85 Au                            15 s      
 label:          86 Au                            15 dxy    
 label:          87 Au                            15 dyz    
 label:          88 Au                            15 dz2    
 label:          89 Au                            15 dxz    
 label:          90 Au                            15 dx2-y2 
 label:          91 Au                            16 s      
 label:          92 Au                            16 dxy    
 label:          93 Au                            16 dyz    
 label:          94 Au                            16 dz2    
 label:          95 Au                            16 dxz    
 label:          96 Au                            16 dx2-y2 
 label:          97 Au                            17 s      
 label:          98 Au                            17 dxy    
 label:          99 Au                            17 dyz    
 label:         100 Au                            17 dz2    
 label:         101 Au                            17 dxz    
 label:         102 Au                            17 dx2-y2 
 label:         103 Au                            18 s      
 label:         104 Au                            18 dxy    
 label:         105 Au                            18 dyz    
 label:         106 Au                            18 dz2    
 label:         107 Au                            18 dxz    
 label:         108 Au                            18 dx2-y2 
 label:         109 Au                            19 s      
 label:         110 Au                            19 dxy    
 label:         111 Au                            19 dyz    
 label:         112 Au                            19 dz2    
 label:         113 Au                            19 dxz    
 label:         114 Au                            19 dx2-y2 
 label:         115 Au                            20 s      
 label:         116 Au                            20 dxy    
 label:         117 Au                            20 dyz    
 label:         118 Au                            20 dz2    
 label:         119 Au                            20 dxz    
 label:         120 Au                            20 dx2-y2 
 label:         121 Au                            21 s      
 label:         122 Au                            21 dxy    
 label:         123 Au                            21 dyz    
 label:         124 Au                            21 dz2    
 label:         125 Au                            21 dxz    
 label:         126 Au                            21 dx2-y2 
 label:         127 Au                            22 s      
 label:         128 Au                            22 dxy    
 label:         129 Au                            22 dyz    
 label:         130 Au                            22 dz2    
 label:         131 Au                            22 dxz    
 label:         132 Au                            22 dx2-y2 
 label:         133 Au                            23 s      
 label:         134 Au                            23 dxy    
 label:         135 Au                            23 dyz    
 label:         136 Au                            23 dz2    
 label:         137 Au                            23 dxz    
 label:         138 Au                            23 dx2-y2 
 label:         139 Au                            24 s      
 label:         140 Au                            24 dxy    
 label:         141 Au                            24 dyz    
 label:         142 Au                            24 dz2    
 label:         143 Au                            24 dxz    
 label:         144 Au                            24 dx2-y2 
 label:         145 Au                            25 s      
 label:         146 Au                            25 dxy    
 label:         147 Au                            25 dyz    
 label:         148 Au                            25 dz2    
 label:         149 Au                            25 dxz    
 label:         150 Au                            25 dx2-y2 
 label:         151 Au                            26 s      
 label:         152 Au                            26 dxy    
 label:         153 Au                            26 dyz    
 label:         154 Au                            26 dz2    
 label:         155 Au                            26 dxz    
 label:         156 Au                            26 dx2-y2 
 label:         157 Au                            27 s      
 label:         158 Au                            27 dxy    
 label:         159 Au                            27 dyz    
 label:         160 Au                            27 dz2    
 label:         161 Au                            27 dxz    
 label:         162 Au                            27 dx2-y2 
 label:         163 Au                            28 s      
 label:         164 Au                            28 dxy    
 label:         165 Au                            28 dyz    
 label:         166 Au                            28 dz2    
 label:         167 Au                            28 dxz    
 label:         168 Au                            28 dx2-y2 
 label:         169 Au                            29 s      
 label:         170 Au                            29 dxy    
 label:         171 Au                            29 dyz    
 label:         172 Au                            29 dz2    
 label:         173 Au                            29 dxz    
 label:         174 Au                            29 dx2-y2 
 label:         175 Au                            30 s      
 label:         176 Au                            30 dxy    
 label:         177 Au                            30 dyz    
 label:         178 Au                            30 dz2    
 label:         179 Au                            30 dxz    
 label:         180 Au                            30 dx2-y2 
 label:         181 Au                            31 s      
 label:         182 Au                            31 dxy    
 label:         183 Au                            31 dyz    
 label:         184 Au                            31 dz2    
 label:         185 Au                            31 dxz    
 label:         186 Au                            31 dx2-y2 
 label:         187 Au                            32 s      
 label:         188 Au                            32 dxy    
 label:         189 Au                            32 dyz    
 label:         190 Au                            32 dz2    
 label:         191 Au                            32 dxz    
 label:         192 Au                            32 dx2-y2 
 label:         193 Au                            33 s      
 label:         194 Au                            33 dxy    
 label:         195 Au                            33 dyz    
 label:         196 Au                            33 dz2    
 label:         197 Au                            33 dxz    
 label:         198 Au                            33 dx2-y2 
 label:         199 Au                            34 s      
 label:         200 Au                            34 dxy    
 label:         201 Au                            34 dyz    
 label:         202 Au                            34 dz2    
 label:         203 Au                            34 dxz    
 label:         204 Au                            34 dx2-y2 
 label:         205 Au                            35 s      
 label:         206 Au                            35 dxy    
 label:         207 Au                            35 dyz    
 label:         208 Au                            35 dz2    
 label:         209 Au                            35 dxz    
 label:         210 Au                            35 dx2-y2 
 label:         211 Au                            36 s      
 label:         212 Au                            36 dxy    
 label:         213 Au                            36 dyz    
 label:         214 Au                            36 dz2    
 label:         215 Au                            36 dxz    
 label:         216 Au                            36 dx2-y2 
 label:         217 Au                            37 s      
 label:         218 Au                            37 dxy    
 label:         219 Au                            37 dyz    
 label:         220 Au                            37 dz2    
 label:         221 Au                            37 dxz    
 label:         222 Au                            37 dx2-y2 
 label:         223 Au                            38 s      
 label:         224 Au                            38 dxy    
 label:         225 Au                            38 dyz    
 label:         226 Au                            38 dz2    
 label:         227 Au                            38 dxz    
 label:         228 Au                            38 dx2-y2 
 label:         229 Au                            39 s      
 label:         230 Au                            39 dxy    
 label:         231 Au                            39 dyz    
 label:         232 Au                            39 dz2    
 label:         233 Au                            39 dxz    
 label:         234 Au                            39 dx2-y2 
 label:         235 Au                            40 s      
 label:         236 Au                            40 dxy    
 label:         237 Au                            40 dyz    
 label:         238 Au                            40 dz2    
 label:         239 Au                            40 dxz    
 label:         240 Au                            40 dx2-y2 
 label:         241 Au                            41 s      
 label:         242 Au                            41 dxy    
 label:         243 Au                            41 dyz    
 label:         244 Au                            41 dz2    
 label:         245 Au                            41 dxz    
 label:         246 Au                            41 dx2-y2 
 label:         247 Au                            42 s      
 label:         248 Au                            42 dxy    
 label:         249 Au                            42 dyz    
 label:         250 Au                            42 dz2    
 label:         251 Au                            42 dxz    
 label:         252 Au                            42 dx2-y2 
 label:         253 Au                            43 s      
 label:         254 Au                            43 dxy    
 label:         255 Au                            43 dyz    
 label:         256 Au                            43 dz2    
 label:         257 Au                            43 dxz    
 label:         258 Au                            43 dx2-y2 
 label:         259 Au                            44 s      
 label:         260 Au                            44 dxy    
 label:         261 Au                            44 dyz    
 label:         262 Au                            44 dz2    
 label:         263 Au                            44 dxz    
 label:         264 Au                            44 dx2-y2 
 label:         265 Au                            45 s      
 label:         266 Au                            45 dxy    
 label:         267 Au                            45 dyz    
 label:         268 Au                            45 dz2    
 label:         269 Au                            45 dxz    
 label:         270 Au                            45 dx2-y2 
 label:         271 Au                            46 s      
 label:         272 Au                            46 dxy    
 label:         273 Au                            46 dyz    
 label:         274 Au                            46 dz2    
 label:         275 Au                            46 dxz    
 label:         276 Au                            46 dx2-y2 
 label:         277 Au                            47 s      
 label:         278 Au                            47 dxy    
 label:         279 Au                            47 dyz    
 label:         280 Au                            47 dz2    
 label:         281 Au                            47 dxz    
 label:         282 Au                            47 dx2-y2 
 label:         283 Au                            48 s      
 label:         284 Au                            48 dxy    
 label:         285 Au                            48 dyz    
 label:         286 Au                            48 dz2    
 label:         287 Au                            48 dxz    
 label:         288 Au                            48 dx2-y2 
 label:         289 Au                            49 s      
 label:         290 Au                            49 dxy    
 label:         291 Au                            49 dyz    
 label:         292 Au                            49 dz2    
 label:         293 Au                            49 dxz    
 label:         294 Au                            49 dx2-y2 
 label:         295 Au                            50 s      
 label:         296 Au                            50 dxy    
 label:         297 Au                            50 dyz    
 label:         298 Au                            50 dz2    
 label:         299 Au                            50 dxz    
 label:         300 Au                            50 dx2-y2 
 label:         301 Au                            51 s      
 label:         302 Au                            51 dxy    
 label:         303 Au                            51 dyz    
 label:         304 Au                            51 dz2    
 label:         305 Au                            51 dxz    
 label:         306 Au                            51 dx2-y2 
 label:         307 Au                            52 s      
 label:         308 Au                            52 dxy    
 label:         309 Au                            52 dyz    
 label:         310 Au                            52 dz2    
 label:         311 Au                            52 dxz    
 label:         312 Au                            52 dx2-y2 
 label:         313 Au                            53 s      
 label:         314 Au                            53 dxy    
 label:         315 Au                            53 dyz    
 label:         316 Au                            53 dz2    
 label:         317 Au                            53 dxz    
 label:         318 Au                            53 dx2-y2 
 label:         319 Au                            54 s      
 label:         320 Au                            54 dxy    
 label:         321 Au                            54 dyz    
 label:         322 Au                            54 dz2    
 label:         323 Au                            54 dxz    
 label:         324 Au                            54 dx2-y2 
 label:         325 Au                            55 s      
 label:         326 Au                            55 dxy    
 label:         327 Au                            55 dyz    
 label:         328 Au                            55 dz2    
 label:         329 Au                            55 dxz    
 label:         330 Au                            55 dx2-y2 
 label:         331 Au                            56 s      
 label:         332 Au                            56 dxy    
 label:         333 Au                            56 dyz    
 label:         334 Au                            56 dz2    
 label:         335 Au                            56 dxz    
 label:         336 Au                            56 dx2-y2 
 label:         337 S                             57 s      
 label:         338 S                             57 s      
 label:         339 S                             57 py     
 label:         340 S                             57 pz     
 label:         341 S                             57 px     
 label:         342 S                             57 py     
 label:         343 S                             57 pz     
 label:         344 S                             57 px     
 label:         345 S                             57 Pdxy   
 label:         346 S                             57 Pdyz   
 label:         347 S                             57 Pdz2   
 label:         348 S                             57 Pdxz   
 label:         349 S                             57 Pdx2-y2
 label:         350 C                             58 s      
 label:         351 C                             58 s      
 label:         352 C                             58 py     
 label:         353 C                             58 pz     
 label:         354 C                             58 px     
 label:         355 C                             58 py     
 label:         356 C                             58 pz     
 label:         357 C                             58 px     
 label:         358 C                             58 Pdxy   
 label:         359 C                             58 Pdyz   
 label:         360 C                             58 Pdz2   
 label:         361 C                             58 Pdxz   
 label:         362 C                             58 Pdx2-y2
 label:         363 H                             59 s      
 label:         364 H                             59 s      
 label:         365 H                             59 Ppy    
 label:         366 H                             59 Ppz    
 label:         367 H                             59 Ppx    
 label:         368 H                             60 s      
 label:         369 H                             60 s      
 label:         370 H                             60 Ppy    
 label:         371 H                             60 Ppz    
 label:         372 H                             60 Ppx    
 label:         373 C                             61 s      
 label:         374 C                             61 s      
 label:         375 C                             61 py     
 label:         376 C                             61 pz     
 label:         377 C                             61 px     
 label:         378 C                             61 py     
 label:         379 C                             61 pz     
 label:         380 C                             61 px     
 label:         381 C                             61 Pdxy   
 label:         382 C                             61 Pdyz   
 label:         383 C                             61 Pdz2   
 label:         384 C                             61 Pdxz   
 label:         385 C                             61 Pdx2-y2
 label:         386 C                             62 s      
 label:         387 C                             62 s      
 label:         388 C                             62 py     
 label:         389 C                             62 pz     
 label:         390 C                             62 px     
 label:         391 C                             62 py     
 label:         392 C                             62 pz     
 label:         393 C                             62 px     
 label:         394 C                             62 Pdxy   
 label:         395 C                             62 Pdyz   
 label:         396 C                             62 Pdz2   
 label:         397 C                             62 Pdxz   
 label:         398 C                             62 Pdx2-y2
 label:         399 C                             63 s      
 label:         400 C                             63 s      
 label:         401 C                             63 py     
 label:         402 C                             63 pz     
 label:         403 C                             63 px     
 label:         404 C                             63 py     
 label:         405 C                             63 pz     
 label:         406 C                             63 px     
 label:         407 C                             63 Pdxy   
 label:         408 C                             63 Pdyz   
 label:         409 C                             63 Pdz2   
 label:         410 C                             63 Pdxz   
 label:         411 C                             63 Pdx2-y2
 label:         412 C                             64 s      
 label:         413 C                             64 s      
 label:         414 C                             64 py     
 label:         415 C                             64 pz     
 label:         416 C                             64 px     
 label:         417 C                             64 py     
 label:         418 C                             64 pz     
 label:         419 C                             64 px     
 label:         420 C                             64 Pdxy   
 label:         421 C                             64 Pdyz   
 label:         422 C                             64 Pdz2   
 label:         423 C                             64 Pdxz   
 label:         424 C                             64 Pdx2-y2
 label:         425 H                             65 s      
 label:         426 H                             65 s      
 label:         427 H                             65 Ppy    
 label:         428 H                             65 Ppz    
 label:         429 H                             65 Ppx    
 label:         430 H                             66 s      
 label:         431 H                             66 s      
 label:         432 H                             66 Ppy    
 label:         433 H                             66 Ppz    
 label:         434 H                             66 Ppx    
 label:         435 C                             67 s      
 label:         436 C                             67 s      
 label:         437 C                             67 py     
 label:         438 C                             67 pz     
 label:         439 C                             67 px     
 label:         440 C                             67 py     
 label:         441 C                             67 pz     
 label:         442 C                             67 px     
 label:         443 C                             67 Pdxy   
 label:         444 C                             67 Pdyz   
 label:         445 C                             67 Pdz2   
 label:         446 C                             67 Pdxz   
 label:         447 C                             67 Pdx2-y2
 label:         448 S                             68 s      
 label:         449 S                             68 s      
 label:         450 S                             68 py     
 label:         451 S                             68 pz     
 label:         452 S                             68 px     
 label:         453 S                             68 py     
 label:         454 S                             68 pz     
 label:         455 S                             68 px     
 label:         456 S                             68 Pdxy   
 label:         457 S                             68 Pdyz   
 label:         458 S                             68 Pdz2   
 label:         459 S                             68 Pdxz   
 label:         460 S                             68 Pdx2-y2
 label:         461 Au                            69 s      
 label:         462 Au                            69 dxy    
 label:         463 Au                            69 dyz    
 label:         464 Au                            69 dz2    
 label:         465 Au                            69 dxz    
 label:         466 Au                            69 dx2-y2 
 label:         467 Au                            70 s      
 label:         468 Au                            70 dxy    
 label:         469 Au                            70 dyz    
 label:         470 Au                            70 dz2    
 label:         471 Au                            70 dxz    
 label:         472 Au                            70 dx2-y2 
 label:         473 Au                            71 s      
 label:         474 Au                            71 dxy    
 label:         475 Au                            71 dyz    
 label:         476 Au                            71 dz2    
 label:         477 Au                            71 dxz    
 label:         478 Au                            71 dx2-y2 
 label:         479 Au                            72 s      
 label:         480 Au                            72 dxy    
 label:         481 Au                            72 dyz    
 label:         482 Au                            72 dz2    
 label:         483 Au                            72 dxz    
 label:         484 Au                            72 dx2-y2 
 label:         485 Au                            73 s      
 label:         486 Au                            73 dxy    
 label:         487 Au                            73 dyz    
 label:         488 Au                            73 dz2    
 label:         489 Au                            73 dxz    
 label:         490 Au                            73 dx2-y2 
 label:         491 Au                            74 s      
 label:         492 Au                            74 dxy    
 label:         493 Au                            74 dyz    
 label:         494 Au                            74 dz2    
 label:         495 Au                            74 dxz    
 label:         496 Au                            74 dx2-y2 
 label:         497 Au                            75 s      
 label:         498 Au                            75 dxy    
 label:         499 Au                            75 dyz    
 label:         500 Au                            75 dz2    
 label:         501 Au                            75 dxz    
 label:         502 Au                            75 dx2-y2 
 label:         503 Au                            76 s      
 label:         504 Au                            76 dxy    
 label:         505 Au                            76 dyz    
 label:         506 Au                            76 dz2    
 label:         507 Au                            76 dxz    
 label:         508 Au                            76 dx2-y2 
 label:         509 Au                            77 s      
 label:         510 Au                            77 dxy    
 label:         511 Au                            77 dyz    
 label:         512 Au                            77 dz2    
 label:         513 Au                            77 dxz    
 label:         514 Au                            77 dx2-y2 
 label:         515 Au                            78 s      
 label:         516 Au                            78 dxy    
 label:         517 Au                            78 dyz    
 label:         518 Au                            78 dz2    
 label:         519 Au                            78 dxz    
 label:         520 Au                            78 dx2-y2 
 label:         521 Au                            79 s      
 label:         522 Au                            79 dxy    
 label:         523 Au                            79 dyz    
 label:         524 Au                            79 dz2    
 label:         525 Au                            79 dxz    
 label:         526 Au                            79 dx2-y2 
 label:         527 Au                            80 s      
 label:         528 Au                            80 dxy    
 label:         529 Au                            80 dyz    
 label:         530 Au                            80 dz2    
 label:         531 Au                            80 dxz    
 label:         532 Au                            80 dx2-y2 
 label:         533 Au                            81 s      
 label:         534 Au                            81 dxy    
 label:         535 Au                            81 dyz    
 label:         536 Au                            81 dz2    
 label:         537 Au                            81 dxz    
 label:         538 Au                            81 dx2-y2 
 label:         539 Au                            82 s      
 label:         540 Au                            82 dxy    
 label:         541 Au                            82 dyz    
 label:         542 Au                            82 dz2    
 label:         543 Au                            82 dxz    
 label:         544 Au                            82 dx2-y2 
 label:         545 Au                            83 s      
 label:         546 Au                            83 dxy    
 label:         547 Au                            83 dyz    
 label:         548 Au                            83 dz2    
 label:         549 Au                            83 dxz    
 label:         550 Au                            83 dx2-y2 
 label:         551 Au                            84 s      
 label:         552 Au                            84 dxy    
 label:         553 Au                            84 dyz    
 label:         554 Au                            84 dz2    
 label:         555 Au                            84 dxz    
 label:         556 Au                            84 dx2-y2 
 label:         557 Au                            85 s      
 label:         558 Au                            85 dxy    
 label:         559 Au                            85 dyz    
 label:         560 Au                            85 dz2    
 label:         561 Au                            85 dxz    
 label:         562 Au                            85 dx2-y2 
 label:         563 Au                            86 s      
 label:         564 Au                            86 dxy    
 label:         565 Au                            86 dyz    
 label:         566 Au                            86 dz2    
 label:         567 Au                            86 dxz    
 label:         568 Au                            86 dx2-y2 
 label:         569 Au                            87 s      
 label:         570 Au                            87 dxy    
 label:         571 Au                            87 dyz    
 label:         572 Au                            87 dz2    
 label:         573 Au                            87 dxz    
 label:         574 Au                            87 dx2-y2 
 label:         575 Au                            88 s      
 label:         576 Au                            88 dxy    
 label:         577 Au                            88 dyz    
 label:         578 Au                            88 dz2    
 label:         579 Au                            88 dxz    
 label:         580 Au                            88 dx2-y2 
 label:         581 Au                            89 s      
 label:         582 Au                            89 dxy    
 label:         583 Au                            89 dyz    
 label:         584 Au                            89 dz2    
 label:         585 Au                            89 dxz    
 label:         586 Au                            89 dx2-y2 
 label:         587 Au                            90 s      
 label:         588 Au                            90 dxy    
 label:         589 Au                            90 dyz    
 label:         590 Au                            90 dz2    
 label:         591 Au                            90 dxz    
 label:         592 Au                            90 dx2-y2 
 label:         593 Au                            91 s      
 label:         594 Au                            91 dxy    
 label:         595 Au                            91 dyz    
 label:         596 Au                            91 dz2    
 label:         597 Au                            91 dxz    
 label:         598 Au                            91 dx2-y2 
 label:         599 Au                            92 s      
 label:         600 Au                            92 dxy    
 label:         601 Au                            92 dyz    
 label:         602 Au                            92 dz2    
 label:         603 Au                            92 dxz    
 label:         604 Au                            92 dx2-y2 
 label:         605 Au                            93 s      
 label:         606 Au                            93 dxy    
 label:         607 Au                            93 dyz    
 label:         608 Au                            93 dz2    
 label:         609 Au                            93 dxz    
 label:         610 Au                            93 dx2-y2 
 label:         611 Au                            94 s      
 label:         612 Au                            94 dxy    
 label:         613 Au                            94 dyz    
 label:         614 Au                            94 dz2    
 label:         615 Au                            94 dxz    
 label:         616 Au                            94 dx2-y2 
 label:         617 Au                            95 s      
 label:         618 Au                            95 dxy    
 label:         619 Au                            95 dyz    
 label:         620 Au                            95 dz2    
 label:         621 Au                            95 dxz    
 label:         622 Au                            95 dx2-y2 
 label:         623 Au                            96 s      
 label:         624 Au                            96 dxy    
 label:         625 Au                            96 dyz    
 label:         626 Au                            96 dz2    
 label:         627 Au                            96 dxz    
 label:         628 Au                            96 dx2-y2 
 label:         629 Au                            97 s      
 label:         630 Au                            97 dxy    
 label:         631 Au                            97 dyz    
 label:         632 Au                            97 dz2    
 label:         633 Au                            97 dxz    
 label:         634 Au                            97 dx2-y2 
 label:         635 Au                            98 s      
 label:         636 Au                            98 dxy    
 label:         637 Au                            98 dyz    
 label:         638 Au                            98 dz2    
 label:         639 Au                            98 dxz    
 label:         640 Au                            98 dx2-y2 
 label:         641 Au                            99 s      
 label:         642 Au                            99 dxy    
 label:         643 Au                            99 dyz    
 label:         644 Au                            99 dz2    
 label:         645 Au                            99 dxz    
 label:         646 Au                            99 dx2-y2 
 label:         647 Au                           100 s      
 label:         648 Au                           100 dxy    
 label:         649 Au                           100 dyz    
 label:         650 Au                           100 dz2    
 label:         651 Au                           100 dxz    
 label:         652 Au                           100 dx2-y2 
 label:         653 Au                           101 s      
 label:         654 Au                           101 dxy    
 label:         655 Au                           101 dyz    
 label:         656 Au                           101 dz2    
 label:         657 Au                           101 dxz    
 label:         658 Au                           101 dx2-y2 
 label:         659 Au                           102 s      
 label:         660 Au                           102 dxy    
 label:         661 Au                           102 dyz    
 label:         662 Au                           102 dz2    
 label:         663 Au                           102 dxz    
 label:         664 Au                           102 dx2-y2 
 label:         665 Au                           103 s      
 label:         666 Au                           103 dxy    
 label:         667 Au                           103 dyz    
 label:         668 Au                           103 dz2    
 label:         669 Au                           103 dxz    
 label:         670 Au                           103 dx2-y2 
 label:         671 Au                           104 s      
 label:         672 Au                           104 dxy    
 label:         673 Au                           104 dyz    
 label:         674 Au                           104 dz2    
 label:         675 Au                           104 dxz    
 label:         676 Au                           104 dx2-y2 
 label:         677 Au                           105 s      
 label:         678 Au                           105 dxy    
 label:         679 Au                           105 dyz    
 label:         680 Au                           105 dz2    
 label:         681 Au                           105 dxz    
 label:         682 Au                           105 dx2-y2 
 label:         683 Au                           106 s      
 label:         684 Au                           106 dxy    
 label:         685 Au                           106 dyz    
 label:         686 Au                           106 dz2    
 label:         687 Au                           106 dxz    
 label:         688 Au                           106 dx2-y2 
 label:         689 Au                           107 s      
 label:         690 Au                           107 dxy    
 label:         691 Au                           107 dyz    
 label:         692 Au                           107 dz2    
 label:         693 Au                           107 dxz    
 label:         694 Au                           107 dx2-y2 
 label:         695 Au                           108 s      
 label:         696 Au                           108 dxy    
 label:         697 Au                           108 dyz    
 label:         698 Au                           108 dz2    
 label:         699 Au                           108 dxz    
 label:         700 Au                           108 dx2-y2 
 label:         701 Au                           109 s      
 label:         702 Au                           109 dxy    
 label:         703 Au                           109 dyz    
 label:         704 Au                           109 dz2    
 label:         705 Au                           109 dxz    
 label:         706 Au                           109 dx2-y2 
 label:         707 Au                           110 s      
 label:         708 Au                           110 dxy    
 label:         709 Au                           110 dyz    
 label:         710 Au                           110 dz2    
 label:         711 Au                           110 dxz    
 label:         712 Au                           110 dx2-y2 
 label:         713 Au                           111 s      
 label:         714 Au                           111 dxy    
 label:         715 Au                           111 dyz    
 label:         716 Au                           111 dz2    
 label:         717 Au                           111 dxz    
 label:         718 Au                           111 dx2-y2 
 label:         719 Au                           112 s      
 label:         720 Au                           112 dxy    
 label:         721 Au                           112 dyz    
 label:         722 Au                           112 dz2    
 label:         723 Au                           112 dxz    
 label:         724 Au                           112 dx2-y2 
 label:         725 Au                           113 s      
 label:         726 Au                           113 dxy    
 label:         727 Au                           113 dyz    
 label:         728 Au                           113 dz2    
 label:         729 Au                           113 dxz    
 label:         730 Au                           113 dx2-y2 
 label:         731 Au                           114 s      
 label:         732 Au                           114 dxy    
 label:         733 Au                           114 dyz    
 label:         734 Au                           114 dz2    
 label:         735 Au                           114 dxz    
 label:         736 Au                           114 dx2-y2 
 label:         737 Au                           115 s      
 label:         738 Au                           115 dxy    
 label:         739 Au                           115 dyz    
 label:         740 Au                           115 dz2    
 label:         741 Au                           115 dxz    
 label:         742 Au                           115 dx2-y2 
 label:         743 Au                           116 s      
 label:         744 Au                           116 dxy    
 label:         745 Au                           116 dyz    
 label:         746 Au                           116 dz2    
 label:         747 Au                           116 dxz    
[...]
         -8.22  -8.22  -8.21  -8.20  -8.20  -8.18  -8.13  -8.13  -8.11  -8.11
         -8.09  -8.07  -8.07  -8.07  -8.06  -8.05  -8.03  -8.03  -8.02  -8.01
         -8.00  -8.00  -7.99  -7.99  -7.98  -7.98  -7.98  -7.97  -7.94  -7.94
         -7.91  -7.89  -7.88  -7.88  -7.83  -7.83  -7.78  -7.78  -7.77  -7.75
         -7.75  -7.74  -7.74  -7.72  -7.72  -7.72  -7.71  -7.70  -7.70  -7.67
         -7.67  -7.67  -7.66  -7.65  -7.65  -7.65  -7.65  -7.65  -7.64  -7.63
         -7.61  -7.59  -7.59  -7.56  -7.55  -7.54  -7.53  -7.53  -7.51  -7.51
         -7.50  -7.50  -7.49  -7.47  -7.47  -7.44  -7.43  -7.43  -7.41  -7.41
         -7.38  -7.37  -7.36  -7.35  -7.34  -7.34  -7.33  -7.31  -7.30  -7.29
         -7.28  -7.26  -7.24  -7.23  -7.21  -7.21  -7.20  -7.20  -7.19  -7.19
         -7.18  -7.18  -7.17  -7.14  -7.13  -7.11  -7.11  -7.10  -7.08  -7.06
         -7.05  -7.04  -7.03  -7.02  -7.02  -7.02  -7.00  -6.99  -6.98  -6.98
         -6.97  -6.96  -6.95  -6.95  -6.95  -6.94  -6.94  -6.92  -6.92  -6.91
         -6.90  -6.88  -6.84  -6.83  -6.82  -6.82  -6.82  -6.81  -6.80  -6.79
         -6.78  -6.78  -6.77  -6.73  -6.73  -6.73  -6.73  -6.70  -6.69  -6.67
         -6.66  -6.65  -6.64  -6.61  -6.61  -6.61  -6.60  -6.60  -6.59  -6.58
         -6.58  -6.57  -6.54  -6.53  -6.50  -6.50  -6.50  -6.49  -6.47  -6.46
         -6.45  -6.44  -6.43  -6.43  -6.42  -6.42  -6.40  -6.40  -6.38  -6.38
         -6.37  -6.36  -6.36  -6.35  -6.31  -6.31  -6.30  -6.27  -6.27  -6.26
         -6.26  -6.23  -6.23  -6.19  -6.17  -6.16  -6.15  -6.14  -6.14  -6.13
         -6.13  -6.11  -6.09  -6.08  -6.06  -6.05  -6.04  -6.04  -6.02  -6.01
         -6.01  -6.00  -5.99  -5.98  -5.97  -5.96  -5.95  -5.94  -5.92  -5.89
         -5.88  -5.88  -5.88  -5.87  -5.83  -5.82  -5.82  -5.81  -5.79  -5.79
         -5.79  -5.76  -5.75  -5.71  -5.70  -5.70  -5.66  -5.65  -5.64  -5.64
         -5.58  -5.58  -5.56  -5.55  -5.54  -5.54  -5.50  -5.48  -5.47  -5.47
         -5.46  -5.46  -5.43  -5.42  -5.41  -5.41  -5.40  -5.38  -5.38  -5.36
         -5.34  -5.33  -5.32  -5.30  -5.29  -5.28  -5.27  -5.23  -5.23  -5.23
         -5.21  -5.21  -5.19  -5.18  -5.18  -5.17  -5.13  -5.11  -5.10  -5.09
         -5.09  -5.08  -5.07  -5.06  -5.05  -5.05  -5.04  -5.03  -5.02  -5.02
         -5.01  -4.98  -4.94  -4.93  -4.91  -4.89  -4.89  -4.87  -4.85  -4.82
         -4.82  -4.78  -4.78  -4.77  -4.71  -4.71  -4.71  -4.70  -4.70  -4.70
         -4.69  -4.66  -4.64  -4.59  -4.59  -4.57  -4.56  -4.49  -4.43  -4.42
         -4.42  -4.42  -4.41  -4.39  -4.39  -4.37  -4.37  -4.37  -4.22  -4.14
         -4.14  -4.11  -4.04  -3.90  -3.89  -3.83  -3.81  -3.65  -3.55  -3.55
         -3.51  -3.42  -3.37  -3.27  -3.17  -3.12  -2.98  -2.94  -2.84  -2.75
         -2.67  -2.65  -2.59  -2.39  -2.38  -2.33  -2.24  -2.16  -1.99  -1.91
         -1.83  -1.81  -1.63  -1.60  -1.52  -1.35  -1.35  -1.19  -1.14  -1.09
         -0.98  -0.94  -0.78  -0.69  -0.66  -0.63  -0.62  -0.47  -0.46  -0.36
         -0.28  -0.25  -0.24  -0.22  -0.17  -0.03   0.17   0.49   0.67   0.84
          0.88   0.97   1.20   1.26   1.87   1.90   1.95   1.96   3.02   4.88
          5.47   6.20   6.51   6.84   7.71   7.80   7.86   8.30   8.89   8.92
          9.02   9.53   9.79  10.21  10.24  10.40  12.07  12.81  12.99  13.12
         13.21  13.29  13.82  14.06  14.40  14.47  14.60  15.32  16.14  16.36
         16.53  17.47  17.53  17.64  18.37  18.72  19.17  19.57  20.17  20.29
         20.76  20.97  21.88  22.66  23.56  23.87  24.19  25.01  25.26  26.35
         26.38  26.70  27.06  27.23  29.32  29.55  31.83  34.36  35.56  36.41
         36.51  38.58  40.90  41.21  41.25  41.32  42.25  43.26  44.58  47.16
         49.50  50.13  50.43  50.84  51.04  51.78  53.61  54.09  55.86  58.43
         60.08  61.48  61.69  61.95  65.49  65.65  69.21  73.47  74.61  76.73
         77.73  80.84  85.31  87.12  98.69 101.46 115.39 118.35
   4  1 -19.35 -18.32 -17.12 -15.95 -15.25 -14.21 -14.21 -14.21 -14.21 -13.09
        -13.09 -13.09 -13.07 -12.99 -12.68 -12.52 -12.52 -12.51 -12.47 -12.27
        -12.27 -12.26 -12.26 -12.09 -12.09 -12.09 -12.09 -12.04 -12.03 -12.03
        -12.03 -11.88 -11.87 -11.80 -11.79 -11.75 -11.75 -11.75 -11.75 -11.71
        -11.71 -11.69 -11.68 -11.42 -11.42 -11.42 -11.41 -11.35 -11.33 -11.33
        -11.32 -11.29 -11.29 -11.29 -11.29 -11.21 -11.04 -11.04 -11.02 -11.00
        -10.83 -10.82 -10.75 -10.72 -10.71 -10.69 -10.69 -10.68 -10.68 -10.68
        -10.68 -10.68 -10.63 -10.62 -10.56 -10.48 -10.48 -10.47 -10.45 -10.41
        -10.41 -10.40 -10.40 -10.39 -10.38 -10.38 -10.35 -10.29 -10.25 -10.25
        -10.24 -10.24 -10.23 -10.23 -10.21 -10.21 -10.13 -10.12 -10.11 -10.06
        -10.06 -10.06 -10.04 -10.03 -10.03 -10.03 -10.03 -10.02  -9.98  -9.97
         -9.97  -9.92  -9.87  -9.86  -9.85  -9.85  -9.84  -9.84  -9.83  -9.83
         -9.82  -9.82  -9.81  -9.75  -9.74  -9.74  -9.74  -9.72  -9.70  -9.64
         -9.63  -9.58  -9.57  -9.54  -9.53  -9.51  -9.51  -9.51  -9.51  -9.50
         -9.50  -9.49  -9.49  -9.48  -9.48  -9.48  -9.48  -9.45  -9.45  -9.44
         -9.44  -9.37  -9.34  -9.34  -9.33  -9.31  -9.31  -9.31  -9.30  -9.27
         -9.27  -9.15  -9.13  -9.13  -9.12  -9.10  -9.10  -9.09  -9.09  -9.09
         -9.06  -9.05  -9.04  -9.01  -9.00  -9.00  -8.99  -8.98  -8.97  -8.97
         -8.96  -8.96  -8.96  -8.96  -8.95  -8.95  -8.95  -8.93  -8.91  -8.91
         -8.91  -8.89  -8.89  -8.88  -8.88  -8.88  -8.87  -8.87  -8.85  -8.83
         -8.80  -8.76  -8.75  -8.74  -8.74  -8.70  -8.69  -8.68  -8.68  -8.68
         -8.68  -8.68  -8.67  -8.66  -8.66  -8.66  -8.65  -8.63  -8.60  -8.57
         -8.56  -8.55  -8.54  -8.52  -8.52  -8.52  -8.51  -8.50  -8.50  -8.49
         -8.49  -8.47  -8.45  -8.44  -8.44  -8.42  -8.41  -8.41  -8.40  -8.38
         -8.31  -8.30  -8.30  -8.30  -8.28  -8.28  -8.26  -8.26  -8.24  -8.23
         -8.19  -8.14  -8.14  -8.14  -8.13  -8.12  -8.11  -8.11  -8.08  -8.07
         -8.05  -8.03  -8.03  -8.01  -7.99  -7.99  -7.97  -7.97  -7.97  -7.97
         -7.96  -7.96  -7.96  -7.93  -7.93  -7.93  -7.92  -7.92  -7.91  -7.91
         -7.91  -7.90  -7.89  -7.88  -7.85  -7.82  -7.81  -7.80  -7.75  -7.75
         -7.75  -7.75  -7.72  -7.71  -7.69  -7.69  -7.66  -7.65  -7.64  -7.63
         -7.63  -7.62  -7.62  -7.61  -7.61  -7.61  -7.60  -7.59  -7.59  -7.59
         -7.58  -7.52  -7.49  -7.48  -7.47  -7.46  -7.45  -7.45  -7.44  -7.43
         -7.42  -7.41  -7.41  -7.40  -7.39  -7.38  -7.38  -7.37  -7.37  -7.37
         -7.36  -7.34  -7.34  -7.31  -7.31  -7.31  -7.30  -7.27  -7.26  -7.26
         -7.25  -7.25  -7.24  -7.23  -7.22  -7.22  -7.21  -7.21  -7.20  -7.19
         -7.18  -7.17  -7.16  -7.13  -7.13  -7.12  -7.12  -7.11  -7.09  -7.08
         -7.08  -7.05  -7.04  -7.04  -7.04  -7.03  -7.01  -7.00  -6.99  -6.99
         -6.99  -6.98  -6.98  -6.98  -6.98  -6.97  -6.96  -6.95  -6.95  -6.95
         -6.94  -6.93  -6.91  -6.90  -6.90  -6.90  -6.90  -6.89  -6.88  -6.86
         -6.85  -6.76  -6.75  -6.75  -6.74  -6.73  -6.72  -6.71  -6.70  -6.69
         -6.69  -6.69  -6.69  -6.68  -6.67  -6.67  -6.66  -6.65  -6.65  -6.65
         -6.65  -6.64  -6.64  -6.64  -6.62  -6.62  -6.61  -6.60  -6.58  -6.58
         -6.57  -6.57  -6.56  -6.56  -6.55  -6.53  -6.50  -6.49  -6.49  -6.49
         -6.49  -6.48  -6.48  -6.48  -6.46  -6.40  -6.40  -6.40  -6.33  -6.33
         -6.31  -6.31  -6.31  -6.31  -6.31  -6.29  -6.29  -6.29  -6.28  -6.28
         -6.28  -6.27  -6.27  -6.27  -6.27  -6.26  -6.26  -6.25  -6.22  -6.21
         -6.21  -6.18  -6.16  -6.15  -6.10  -6.09  -6.09  -6.06  -6.04  -5.99
         -5.98  -5.97  -5.95  -5.95  -5.94  -5.94  -5.92  -5.91  -5.90  -5.87
         -5.85  -5.84  -5.83  -5.82  -5.79  -5.79  -5.78  -5.78  -5.74  -5.74
         -5.73  -5.72  -5.66  -5.64  -5.62  -5.61  -5.58  -5.57  -5.57  -5.57
         -5.51  -5.48  -5.47  -5.47  -5.40  -5.39  -5.38  -5.34  -5.33  -5.29
         -5.29  -5.29  -5.28  -5.25  -5.25  -5.24  -5.24  -5.23  -5.22  -5.21
         -5.19  -5.18  -5.17  -5.16  -5.12  -5.11  -5.10  -5.09  -5.07  -5.06
         -5.06  -5.05  -5.05  -4.99  -4.97  -4.97  -4.93  -4.93  -4.93  -4.93
         -4.84  -4.84  -4.84  -4.84  -4.82  -4.81  -4.81  -4.81  -4.75  -4.75
         -4.74  -4.74  -4.74  -4.68  -4.60  -4.60  -4.60  -4.59  -4.59  -4.54
         -4.53  -4.46  -4.46  -4.46  -4.46  -4.46  -4.45  -4.45  -4.45  -4.41
         -4.41  -4.41  -4.41  -4.32  -4.31  -4.28  -4.27  -4.03  -3.99  -3.89
         -3.84  -3.71  -3.49  -3.42  -3.42  -3.39  -3.36  -3.36  -3.22  -3.02
         -2.98  -2.98  -2.91  -2.83  -2.62  -2.58  -2.42  -2.42  -2.42  -2.41
         -2.36  -2.35  -2.32  -2.29  -2.27  -2.26  -2.08  -2.08  -2.07  -2.02
         -1.99  -1.98  -1.89  -1.88  -1.65  -1.58  -1.52  -1.42  -1.42  -1.28
         -1.26  -1.25  -1.21  -1.02  -0.98  -0.92  -0.83  -0.82  -0.80  -0.74
         -0.62  -0.45  -0.44  -0.42  -0.42  -0.41  -0.40  -0.40  -0.37   0.14
          0.20   0.55   0.57   0.60   0.71   0.97   1.70   1.91   2.99   4.84
          5.66   6.14   6.21   7.27   7.79   7.82   7.86   8.19   8.45   8.90
          8.97   9.52   9.59  10.17  10.24  10.40  12.11  12.68  13.00  13.11
         13.15  13.26  13.83  14.32  14.44  14.59  14.64  15.29  16.12  16.28
         16.32  17.32  17.57  17.65  18.51  18.72  18.75  19.22  19.86  20.27
         20.74  21.80  21.87  22.63  23.28  23.93  24.25  24.42  26.17  26.38
         26.41  26.63  27.13  27.31  28.20  30.10  31.84  33.39  35.65  36.27
         36.59  38.48  40.92  41.11  41.27  41.81  42.45  43.31  44.49  47.19
         49.51  50.16  50.83  50.99  51.31  51.70  52.67  54.68  56.27  58.59
         60.11  61.19  61.73  61.94  65.47  66.29  69.21  73.53  74.63  77.25
         77.75  80.26  87.14  87.88  98.54 101.77 113.13 119.80
siesta: Fermi energy =      -3.214620 eV

siesta: Program's energy decomposition (eV):
siesta:-Eions   = -128342.314861
siesta: Ena     =    7904.096604
siesta: Ekin    =   70273.766056
siesta: Enl     =  -26299.842091
siesta: DEna    =     212.991171
siesta: DUscf   =       7.748452
siesta: DUext   =       0.000000
siesta: Exc     =  -43779.995647
siesta: eta*DQ  =       0.000000
siesta: Emadel  =       0.000000
siesta: Ekinion =       0.000000
siesta: Eharris = -120114.657826
siesta: Eso     =       0.000000
siesta: Etot    = -120023.550317
siesta: FreeEng = -120023.628121

siesta: Final energy (eV):
siesta:       Kinetic =   70273.766056
siesta:       Hartree =  158900.189435
siesta:    Ext. field =       0.000000
siesta:   Exch.-corr. =  -43779.995647
siesta:  Ion-electron = -373110.484154
siesta:       Ion-ion =   67692.973994
siesta:       Ekinion =       0.000000
siesta:         Total = -120023.550317

siesta: Atomic forces (eV/Ang):
siesta:    1    0.000144   -0.017847   -0.027507
siesta:    2    0.000130    0.018068   -0.027256
siesta:    3   -0.015293    0.000274   -0.039732
siesta:    4   -0.019686   -0.007585   -0.022441
siesta:    5    0.000078   -0.011412   -0.037779
siesta:    6    0.000089    0.011352   -0.039636
siesta:    7    0.007350    0.000273   -0.039914
siesta:    8    0.014555   -0.005408   -0.022237
siesta:    9    0.000308   -0.000005    0.400346
siesta:   10   -0.000107    0.000070    0.342501
siesta:   11    0.023847    0.019146    0.433972
siesta:   12    0.022966   -0.019164    0.434499
siesta:   13   -0.000019    0.000326    0.436050
siesta:   14   -0.000006    0.000268    0.403515
siesta:   15   -0.023885    0.018767    0.434120
siesta:   16   -0.023001   -0.018800    0.434649
siesta:   17    0.000130    0.013340    1.738059
siesta:   18    0.000121   -0.012697    1.737970
siesta:   19    0.012938   -0.000521    1.758221
siesta:   20    0.017828   -0.000399    1.734773
siesta:   21   -0.000202    0.006764    1.766358
siesta:   22   -0.000187   -0.007192    1.764727
siesta:   23   -0.012760   -0.000507    1.758644
siesta:   24   -0.017432   -0.000408    1.734679
siesta:   25    0.000315   -0.000119   -0.186637
siesta:   26   -0.000283   -0.000767   -0.033944
siesta:   27   -0.003213   -0.010448   -0.139839
siesta:   28   -0.002406    0.010073   -0.141103
siesta:   29    0.000136    0.000096   -0.081070
siesta:   30   -0.000035    0.000091   -0.205982
siesta:   31    0.003228   -0.010526   -0.139737
siesta:   32    0.002414    0.010126   -0.141023
siesta:   33    0.000083   -0.013490   -0.142474
siesta:   34    0.000084    0.012630   -0.142573
siesta:   35    0.004779    0.000491   -0.109643
siesta:   36   -0.013973    0.000027   -0.130586
siesta:   37   -0.000092    0.001464   -0.129577
siesta:   38   -0.000097   -0.001389   -0.129702
siesta:   39   -0.005032    0.000487   -0.110239
siesta:   40    0.013056    0.000036   -0.130797
siesta:   41   -0.000438   -0.000163   -1.285872
siesta:   42   -0.000227   -0.000078   -1.321701
siesta:   43    0.017758    0.020232   -1.409793
siesta:   44    0.017682   -0.020603   -1.408020
siesta:   45   -0.000451   -0.000215   -1.544880
siesta:   46    0.000262    0.000738   -1.272289
siesta:   47   -0.018091    0.020170   -1.409838
siesta:   48   -0.017998   -0.020557   -1.408055
siesta:   49   -0.000454    0.093866    0.465798
siesta:   50   -0.000488   -0.093659    0.466424
siesta:   51   -1.528129   -0.001153   -0.123052
siesta:   52    0.101628   -0.000412    0.439445
siesta:   53   -0.003096   -1.517817   -0.244287
siesta:   54   -0.003139    1.534534   -0.257450
siesta:   55    1.556459   -0.001186   -0.142738
siesta:   56   -0.101274   -0.000409    0.439008
siesta:   57   -0.016177   -0.003986    1.588839
siesta:   58   -0.399333    0.060198   -0.154881
siesta:   59   -3.245122    0.043824   -1.920957
siesta:   60    3.247215    0.042944   -1.871942
siesta:   61    1.762196   -0.106264    2.245716
siesta:   62   -1.434298   -0.103493    2.454200
siesta:   63    1.489247    0.097094   -2.177766
siesta:   64   -1.824234    0.100508   -1.998579
siesta:   65   -3.078489   -0.037244    1.803139
siesta:   66    3.078846   -0.038409    1.848125
siesta:   67    0.426920   -0.053664   -0.015592
siesta:   68   -0.059197   -0.035095   -0.559684
siesta:   69    0.000121    0.047527   -0.723895
siesta:   70    0.000109   -0.046551   -0.722065
siesta:   71   -1.521621   -0.002765   -0.521999
siesta:   72    0.031641    0.000458   -0.696451
siesta:   73   -0.003504   -1.536398   -0.363512
siesta:   74   -0.003544    1.558334   -0.352035
siesta:   75    1.562546   -0.002800   -0.502475
siesta:   76   -0.031986    0.000452   -0.696473
siesta:   77   -0.001119    0.000645    0.477625
siesta:   78    0.000245   -0.000283    0.846812
siesta:   79   -0.021269   -0.019281    0.849688
siesta:   80   -0.021956    0.019623    0.849435
siesta:   81   -0.000304   -0.000913    1.242276
siesta:   82    0.000415   -0.000760    0.499052
siesta:   83    0.021605   -0.019095    0.849618
siesta:   84    0.022281    0.019429    0.849373
siesta:   85    0.000490    0.023639   -0.434419
siesta:   86    0.000510   -0.025297   -0.434709
siesta:   87   -0.005772    0.000155   -0.476537
siesta:   88    0.025118    0.000440   -0.427528
siesta:   89   -0.000104   -0.006164   -0.480328
siesta:   90   -0.000085    0.005714   -0.479763
siesta:   91    0.005119    0.000177   -0.476118
siesta:   92   -0.025889    0.000445   -0.427549
siesta:   93    0.000093   -0.000492    0.350775
siesta:   94    0.000077    0.000126    0.407402
siesta:   95   -0.027013   -0.018531    0.384196
siesta:   96   -0.026504    0.018907    0.384131
siesta:   97    0.000434    0.000445    0.451221
siesta:   98   -0.000161    0.000009    0.355886
siesta:   99    0.027000   -0.018272    0.384100
siesta:  100    0.026537    0.018659    0.384034
siesta:  101    0.000081   -0.004130   -0.851149
siesta:  102    0.000076    0.004313   -0.850704
siesta:  103    0.036228    0.000418   -0.809000
siesta:  104   -0.003597    0.000245   -0.847433
siesta:  105    0.000242    0.035663   -0.809289
siesta:  106    0.000237   -0.037246   -0.810491
siesta:  107   -0.036661    0.000415   -0.809098
siesta:  108    0.003568    0.000243   -0.847178
siesta:  109   -0.000186    0.000024   -0.111940
siesta:  110   -0.000153   -0.000078   -0.093194
siesta:  111    0.005005    0.006281   -0.103235
siesta:  112    0.004867   -0.005805   -0.102930
siesta:  113   -0.000249   -0.000325   -0.153356
siesta:  114    0.000065   -0.000272   -0.116488
siesta:  115   -0.004734    0.006119   -0.103378
siesta:  116   -0.004566   -0.005654   -0.103078
siesta: ----------------------------------------
siesta:  Tot   -0.011821   -0.017015    0.012803

siesta: Stress tensor (static) (eV/Ang**3):
siesta:    -0.039331   -0.000001   -0.000282
siesta:    -0.000002   -0.031721    0.000040
siesta:    -0.000282    0.000039   -0.037313

siesta: Cell volume =       2357.480286 Ang**3

siesta: Pressure (static):
siesta:                Solid            Molecule  Units
siesta:           0.00039341          0.00065723  Ry/Bohr**3
siesta:           0.03612191          0.06034435  eV/Ang**3
siesta:          57.87429830         96.68334983  kBar

siesta: Total spin polarization (Qup-Qdown) =    0.000000
siesta: Spin vector =    0.000000    0.000000    0.000000
siesta: No SpinPolK block detected...
 
* Maximum dynamic memory allocated : Node    0 =    48 MB
* Maximum dynamic memory allocated : Node    1 =    44 MB
* Maximum dynamic memory allocated : Node    2 =    39 MB
* Maximum dynamic memory allocated : Node    3 =    44 MB
* Maximum dynamic memory allocated : Node    4 =    46 MB
* Maximum dynamic memory allocated : Node    5 =    46 MB
* Maximum dynamic memory allocated : Node    6 =    44 MB
* Maximum dynamic memory allocated : Node    7 =    40 MB
* Maximum dynamic memory allocated : Node    8 =    44 MB
* Maximum dynamic memory allocated : Node    9 =    46 MB
* Maximum dynamic memory allocated : Node   10 =    46 MB
* Maximum dynamic memory allocated : Node   11 =    43 MB
* Maximum dynamic memory allocated : Node   12 =    29 MB
* Maximum dynamic memory allocated : Node   13 =    43 MB
* Maximum dynamic memory allocated : Node   14 =    45 MB
* Maximum dynamic memory allocated : Node   15 =    45 MB
* Maximum dynamic memory allocated : Node   16 =    43 MB
* Maximum dynamic memory allocated : Node   17 =    28 MB
* Maximum dynamic memory allocated : Node   18 =    43 MB
* Maximum dynamic memory allocated : Node   19 =    45 MB
* Maximum memory occured during matrixMtoO                    

timer: CPU execution times:
timer:  Routine       Calls   Time/call    Tot.time        %
timer:  siesta            1   19186.434   19186.434   100.00
timer:  Setup             1      14.084      14.084     0.07
timer:  bands             1       0.006       0.006     0.00
timer:  writewave         1       0.018       0.018     0.00
timer:  KSV_init          1       0.005       0.005     0.00
timer:  IterMD            1   19146.965   19146.965    99.79
timer:  hsparse           2       5.159      10.319     0.05
timer:  overfsm           2       4.573       9.147     0.05
timer:  IterSCF         200      95.585   19117.071    99.64
timer:  kinefsm           2       4.291       8.581     0.04
timer:  nlefsm            2      61.667     123.333     0.64
timer:  DHSCF           201      32.891    6611.070    34.46
timer:  DHSCF1            1       1.531       1.531     0.01
timer:  DHSCF2            1      39.961      39.961     0.21
timer:  REORD          2016       0.005      10.997     0.06
timer:  POISON          202       0.481      97.253     0.51
timer:  DHSCF3          201      32.488    6529.994    34.03
timer:  rhoofd          201      15.990    3214.083    16.75
timer:  CELLXC          201       0.182      36.510     0.19
timer:  vmat            200      12.065    2413.083    12.58
timer:  diagon          199      61.293   12197.315    63.57
timer:  cdiag          1592       3.844    6119.327    31.89
timer:  DHSCF4            1      33.241      33.241     0.17
timer:  dfscf             1      28.099      28.099     0.15
  
>> End of run:  17-NOV-2023  17:40:01
