SIESTA 1.3.7  -- [1.3f1 release] (04 Feb 2004)
Architecture  : mpif90
Compiler flags:  -O3 -check bounds -fp-model strict
PARALLEL version

* Running on   64 nodes in parallel
>> Start of run:  16-JAN-2024  15:00:12

                           ***********************       
                           *  WELCOME TO SIESTA  *       
                           ***********************       

reinit: Reading from standard input
************************** Dump of input data file ****************************
SystemName                   1V          # Descriptive name of the system
SystemLabel                     1V               # Short name for naming files
NumberOfAtoms    183
NumberOfSpecies                 7               # Number of species
PAO.BasisType                   split
%block ChemicalSpeciesLabel
1 79 Au_bulk
2 7 N
3 6  C
4 1  H
5 79 Au
6 79 Au_surf
7 79 Au_tip
%endblock ChemicalSpeciesLabel
%block PAO.BasisSizes
C DZP
H DZP
N DZP
%endblock PAO.BasisSizes
%block PAO.Basis
  Au  2
n=6  0  1
6.500
1.00
n=5  2  1
5.850
1.00
%endblock PAO.Basis
%block PS.lmax
 Au   3
%endblock PS.lmax
LatticeConstant 1.000 Ang
%block LatticeVectors
   14.582     0.000   0.000        1
  0.000    8.866     0.000   1
  0.000   0.000    35.532  1
%endblock LatticeVectors
AtomicCoordinatesFormat Ang
%block AtomicCoordinatesAndAtomicSpecies
0.0 0.0 0.0 1 Au_bulk
0.0 2.955 0.0 1 Au_bulk
0.0 5.911 0.0 1 Au_bulk
2.956 0.0 0.0 1 Au_bulk
2.956 2.955 0.0 1 Au_bulk
2.956 5.911 0.0 1 Au_bulk
5.912 0.0 0.0 1 Au_bulk
5.912 2.955 0.0 1 Au_bulk
5.912 5.911 0.0 1 Au_bulk
8.67 0.0 0.0 1 Au_bulk
8.67 2.955 0.0 1 Au_bulk
8.67 5.911 0.0 1 Au_bulk
11.626 0.0 0.0 1 Au_bulk
11.626 2.955 0.0 1 Au_bulk
11.626 5.911 0.0 1 Au_bulk
1.478 1.478 2.09 1 Au_bulk
1.478 4.433 2.09 1 Au_bulk
1.478 7.389 2.09 1 Au_bulk
4.434 1.478 2.09 1 Au_bulk
4.434 4.433 2.09 1 Au_bulk
4.434 7.389 2.09 1 Au_bulk
7.192 1.478 2.09 1 Au_bulk
7.192 4.433 2.09 1 Au_bulk
7.192 7.389 2.09 1 Au_bulk
10.148 1.478 2.09 1 Au_bulk
10.148 4.433 2.09 1 Au_bulk
10.148 7.389 2.09 1 Au_bulk
13.104 1.478 2.09 1 Au_bulk
13.104 4.433 2.09 1 Au_bulk
13.104 7.389 2.09 1 Au_bulk
0.0 0.0 4.18 1 Au_bulk
0.0 2.955 4.18 1 Au_bulk
0.0 5.911 4.18 1 Au_bulk
2.956 0.0 4.18 1 Au_bulk
2.956 2.955 4.18 1 Au_bulk
2.956 5.911 4.18 1 Au_bulk
5.912 0.0 4.18 1 Au_bulk
5.912 2.955 4.18 1 Au_bulk
5.912 5.911 4.18 1 Au_bulk
8.67 0.0 4.18 1 Au_bulk
8.67 2.955 4.18 1 Au_bulk
8.67 5.911 4.18 1 Au_bulk
11.626 0.0 4.18 1 Au_bulk
11.626 2.955 4.18 1 Au_bulk
11.626 5.911 4.18 1 Au_bulk
1.478 1.478 6.27 1 Au_bulk
1.478 4.433 6.27 1 Au_bulk
1.478 7.389 6.27 1 Au_bulk
4.434 1.478 6.27 1 Au_bulk
4.434 4.433 6.27 1 Au_bulk
4.434 7.389 6.27 1 Au_bulk
7.192 1.478 6.27 1 Au_bulk
7.192 4.433 6.27 1 Au_bulk
7.192 7.389 6.27 1 Au_bulk
10.148 1.478 6.27 1 Au_bulk
10.148 4.433 6.27 1 Au_bulk
10.148 7.389 6.27 1 Au_bulk
13.104 1.478 6.27 1 Au_bulk
13.104 4.433 6.27 1 Au_bulk
13.104 7.389 6.27 1 Au_bulk
0.0 0.0 8.36 5 Au
0.0 2.955 8.36 5 Au
0.0 5.911 8.36 5 Au
2.956 0.0 8.36 5 Au
2.956 2.955 8.36 5 Au
2.956 5.911 8.36 5 Au
5.912 0.0 8.36 5 Au
5.912 2.955 8.36 5 Au
5.912 5.911 8.36 5 Au
8.67 0.0 8.36 5 Au
8.67 2.955 8.36 5 Au
8.67 5.911 8.36 5 Au
11.626 0.0 8.36 5 Au
11.626 2.955 8.36 5 Au
11.626 5.911 8.36 5 Au
1.478 1.478 10.45 6 Au_surf
1.478 4.433 10.45 6 Au_surf
1.478 7.389 10.45 6 Au_surf
4.434 1.478 10.45 6 Au_surf
4.434 4.433 10.45 6 Au_surf
4.434 7.389 10.45 6 Au_surf
7.192 1.478 10.45 6 Au_surf
7.192 4.433 10.45 6 Au_surf
7.192 7.389 10.45 6 Au_surf
10.148 1.478 10.45 6 Au_surf
10.148 4.433 10.45 6 Au_surf
10.148 7.389 10.45 6 Au_surf
13.104 1.478 10.45 6 Au_surf
13.104 4.433 10.45 6 Au_surf
13.104 7.389 10.45 6 Au_surf
4.8554 5.9119 12.0318 2 N
9.528 5.9137 12.034 2 N
7.192 5.934 12.04 2 N
4.0750319168 5.904948817 12.6968440618 4 H
10.2939883495 5.9062142779 12.7165326945 4 H
6.0099999686 5.9120523853 12.7658197974 3 C
8.3750478948 5.9129627335 12.7607464959 3 C
8.4047327065 5.8893877816 14.0940608972 2 N
5.9788500869 5.8882515165 14.0942395685 2 N
7.1943473363 5.8799164377 14.7011184903 3 C
7.1912293097 5.8521058221 16.0506226582 2 N
6.3086348447 5.8615539361 16.548439365 4 H
8.0709262665 5.8621389354 16.5535888097 4 H
7.312 5.934 21.043 7 Au_tip
5.813 7.434 22.992 7 Au_tip
8.813 4.434 22.992 7 Au_tip
5.813 4.433 22.992 7 Au_tip
8.813 7.434 22.992 7 Au_tip
1.478 1.478 25.082 5 Au
1.478 4.433 25.082 5 Au
1.478 7.389 25.082 5 Au
4.434 1.478 25.082 5 Au
4.434 4.433 25.082 5 Au
4.434 7.389 25.082 5 Au
7.192 1.478 25.082 5 Au
7.192 4.433 25.082 5 Au
7.192 7.389 25.082 5 Au
10.148 1.478 25.082 5 Au
10.148 4.433 25.082 5 Au
10.148 7.389 25.082 5 Au
13.104 1.478 25.082 5 Au
13.104 4.433 25.082 5 Au
13.104 7.389 25.082 5 Au
0.0 0.0 27.172 1 Au_bulk
0.0 2.955 27.172 1 Au_bulk
0.0 5.911 27.172 1 Au_bulk
2.956 0.0 27.172 1 Au_bulk
2.956 2.955 27.172 1 Au_bulk
2.956 5.911 27.172 1 Au_bulk
5.912 0.0 27.172 1 Au_bulk
5.912 2.955 27.172 1 Au_bulk
5.912 5.911 27.172 1 Au_bulk
8.67 0.0 27.172 1 Au_bulk
8.67 2.955 27.172 1 Au_bulk
8.67 5.911 27.172 1 Au_bulk
11.626 0.0 27.172 1 Au_bulk
11.626 2.955 27.172 1 Au_bulk
11.626 5.911 27.172 1 Au_bulk
1.478 1.478 29.262 1 Au_bulk
1.478 4.433 29.262 1 Au_bulk
1.478 7.389 29.262 1 Au_bulk
4.434 1.478 29.262 1 Au_bulk
4.434 4.433 29.262 1 Au_bulk
4.434 7.389 29.262 1 Au_bulk
7.192 1.478 29.262 1 Au_bulk
7.192 4.433 29.262 1 Au_bulk
7.192 7.389 29.262 1 Au_bulk
10.148 1.478 29.262 1 Au_bulk
10.148 4.433 29.262 1 Au_bulk
10.148 7.389 29.262 1 Au_bulk
13.104 1.478 29.262 1 Au_bulk
13.104 4.433 29.262 1 Au_bulk
13.104 7.389 29.262 1 Au_bulk
0.0 0.0 31.352 1 Au_bulk
0.0 2.955 31.352 1 Au_bulk
0.0 5.911 31.352 1 Au_bulk
2.956 0.0 31.352 1 Au_bulk
2.956 2.955 31.352 1 Au_bulk
2.956 5.911 31.352 1 Au_bulk
5.912 0.0 31.352 1 Au_bulk
5.912 2.955 31.352 1 Au_bulk
5.912 5.911 31.352 1 Au_bulk
8.67 0.0 31.352 1 Au_bulk
8.67 2.955 31.352 1 Au_bulk
8.67 5.911 31.352 1 Au_bulk
11.626 0.0 31.352 1 Au_bulk
11.626 2.955 31.352 1 Au_bulk
11.626 5.911 31.352 1 Au_bulk
1.478 1.478 33.442 1 Au_bulk
1.478 4.433 33.442 1 Au_bulk
1.478 7.389 33.442 1 Au_bulk
4.434 1.478 33.442 1 Au_bulk
4.434 4.433 33.442 1 Au_bulk
4.434 7.389 33.442 1 Au_bulk
7.192 1.478 33.442 1 Au_bulk
7.192 4.433 33.442 1 Au_bulk
7.192 7.389 33.442 1 Au_bulk
10.148 1.478 33.442 1 Au_bulk
10.148 4.433 33.442 1 Au_bulk
10.148 7.389 33.442 1 Au_bulk
13.104 1.478 33.442 1 Au_bulk
13.104 4.433 33.442 1 Au_bulk
13.104 7.389 33.442 1 Au_bulk
%endblock AtomicCoordinatesAndAtomicSpecies 	
%block kgrid_Monkhorst_Pack
  2   0   0     0.0
  0   4   0     0.0
  0   0   1     0.0
%endblock kgrid_Monkhorst_Pack
xc.functional		LDA		# 'LDA', 'GGA'
xc.authors 	 		CA		# 'CA'='PZ', 'PW92', 'PBE'
SpinPolarized			F		# 'T', 'F'		
#FixSpin           F
#TotalSpin        0.0
NonCollinearSpin		F		# 'T', 'F'
MeshCutoff 	 		    200 Ry		# Equivalent plane wave cutoff for the grid
MaxSCFIterations		500
DM.MixingWeight			0.1
DM.NumberPulay			4	# Pulay convergency accelerator
DM.MixSCF1			    T
MixHamiltonian      T
DM.PulayOnFile			F		# Store in memory ('F') or in files ('T')
#DM.NumberKick         30
#DM.KickMixingWeight   0.1
DM.Tolerance 		1.0E-4
NeglNonOverlapInt		F		# 'F'=do not neglect
SolutionMethod			diagon
ElectronicTemperature		300 K		# Default value
DM.UseSaveDM 			T
#MD.UseSaveXV			T
#MD.UseSaveCG			T
WriteForces      T
WriteCoorXmol			T		# Write Atoms coordinates
SaveElectrostaticPotential      T
#SaveHS				T		# Save the Hamiltonian and Overlap matrices
SaveRho				T		# Save the valence pseudocharge density
#SaveDeltaRho			T
#WriteDenchar			T		# Write Denchar output
WriteMullikenPop		0 #write mulliken population of aromic and orbital charges
#-----
#smeagol
#-----
# Perform a transport calculation
EMTransport              T
# Set number of energy points for integrals
NEnergReal               64
# Set bias range
VInitial             1 eV
VFinal               1 eV
NIVPoints                0
# General variables
Delta                    1e-4
EnergLowestBound    -100.0 eV
# Print transmission coefficient
TrCoefficients           T
InitTransmRange      -10.0 eV
FinalTransmRange      10.0 eV
NTransmPoints            800
TRC.EMDOS                T
TRC.LeadsDOS             T
# Matching of Hartree potential with the leads
HartreeLeadsBottom  -15.36721897 eV
%block SaveBiasSteps
 0
%endblock SaveBiasSteps
************************** End of input data file *****************************

reinit: -----------------------------------------------------------------------
reinit: System Name: 1V                                                         
reinit: -----------------------------------------------------------------------
reinit: System Label: 1V                  
reinit: -----------------------------------------------------------------------

initatom: Reading input for the pseudopotentials and atomic orbitals ----------
 Species number:            1  Label: Au_bulk Atomic number:          79
 Species number:            2  Label: N Atomic number:           7
 Species number:            3  Label: C Atomic number:           6
 Species number:            4  Label: H Atomic number:           1
 Species number:            5  Label: Au Atomic number:          79
 Species number:            6  Label: Au_surf Atomic number:          79
 Species number:            7  Label: Au_tip Atomic number:          79
Ground state valence configuration:   6s01  5d10
Reading pseudopotential information in formatted form from Au_bulk.psf
Ground state valence configuration:   2s02  2p03
Reading pseudopotential information in formatted form from N.psf
Ground state valence configuration:   2s02  2p02
Reading pseudopotential information in formatted form from C.psf
Ground state valence configuration:   1s01
Reading pseudopotential information in formatted form from H.psf
Ground state valence configuration:   6s01  5d10
Reading pseudopotential information in formatted form from Au.psf
Ground state valence configuration:   6s01  5d10
Reading pseudopotential information in formatted form from Au_surf.psf
Ground state valence configuration:   6s01  5d10
Reading pseudopotential information in formatted form from Au_tip.psf
resizes: Read basis size for species C = dzp                 
resizes: Read basis size for species H = dzp                 
resizes: Read basis size for species N = dzp                 
relmxkb: Read Max KB Ang. Momentum=    3 for species Au
For Au_bulk, standard SIESTA heuristics set lmxkb to 3
 (one more than the basis l, including polarization orbitals).
Use PS.lmax or PS.KBprojectors blocks to override.
For N, standard SIESTA heuristics set lmxkb to 3
 (one more than the basis l, including polarization orbitals).
Use PS.lmax or PS.KBprojectors blocks to override.
For C, standard SIESTA heuristics set lmxkb to 3
 (one more than the basis l, including polarization orbitals).
Use PS.lmax or PS.KBprojectors blocks to override.
For H, standard SIESTA heuristics set lmxkb to 2
 (one more than the basis l, including polarization orbitals).
Use PS.lmax or PS.KBprojectors blocks to override.
 Warning: Empty PAO shell. l =           1
 Will have a KB projector anyway...
For Au_surf, standard SIESTA heuristics set lmxkb to 3
 (one more than the basis l, including polarization orbitals).
Use PS.lmax or PS.KBprojectors blocks to override.
For Au_tip, standard SIESTA heuristics set lmxkb to 3
 (one more than the basis l, including polarization orbitals).
Use PS.lmax or PS.KBprojectors blocks to override.

<basis_specs>
===============================================================================
Au_bulk              Z=  79    Mass=  196.97        Charge=  0.0000    
Lmxo=2 Lmxkb=3     BasisType=split      Semic=F
L=0  Nsemic=0  Cnfigmx=6
          n=1  nzeta=2  polorb=1
               vcte:    0.0000    
               rinn:    0.0000    
                rcs:    0.0000      0.0000    
            lambdas:    1.0000      1.0000    
L=1  Nsemic=0  Cnfigmx=6
L=2  Nsemic=0  Cnfigmx=5
          n=1  nzeta=2  polorb=0
               vcte:    0.0000    
               rinn:    0.0000    
                rcs:    0.0000      0.0000    
            lambdas:    1.0000      1.0000    
-------------------------------------------------------------------------------
L=0  Nkbl=1  erefs: 0.17977+309
L=1  Nkbl=1  erefs: 0.17977+309
L=2  Nkbl=1  erefs: 0.17977+309
L=3  Nkbl=1  erefs: 0.17977+309
===============================================================================
</basis_specs>

atom: Called for Au  (Z =  79)

read_vps: Pseudopotential generation method:
read_vps: ATM3      Troullier-Martins                       

read_vps: Pseudopotential generated from a relativistic atomic calculation
read_vps: There are spin-orbit pseudopotentials available

read_vps: Valence configuration (pseudopotential and basis set generation):
6s( 1.00) rc: 2.18
6p( 0.00) rc: 2.47
5d(10.00) rc: 1.79
5f( 0.00) rc: 2.00
Total valence charge:   11.00000

read_vps: Pseudopotential includes a core correction:
read_vps: Pseudo-core for xc-correction
comcore: Pseudo-core radius Rcore=  4.027091

xc_check: Exchange-correlation functional:
xc_check: Ceperley-Alder
V l=0 = -2*Zval/r beyond r=  2.9833
V l=1 = -2*Zval/r beyond r=  2.9833
V l=2 = -2*Zval/r beyond r=  2.9833
V l=3 = -2*Zval/r beyond r=  2.9833
All V_l potentials equal beyond r=  2.4425
This should be close to max(r_c) in ps generation
All pots = -2*Zval/r beyond r=  2.9833

VLOCAL1: 99.0% of the norm of Vloc inside      7.276 Ry
VLOCAL1: 99.9% of the norm of Vloc inside     16.582 Ry
atom: Maximum radius for 4*pi*r*r*local-pseudopot. charge    2.94627
atom: Maximum radius for r*vlocal+2*Zval:    2.60007
GHOST: No ghost state for L =  0
GHOST: No ghost state for L =  1
GHOST: No ghost state for L =  2
GHOST: No ghost state for L =  3

KBgen: Kleinman-Bylander projectors: 
   l= 0   rc=  3.175745   el= -0.445638   Ekb=  5.072790   kbcos=  0.276607
   l= 1   rc=  3.256140   el= -0.066324   Ekb=  2.703235   kbcos=  0.227171
   l= 2   rc=  3.020861   el= -0.526103   Ekb= -4.704026   kbcos= -0.643795
   l= 3   rc=  3.466145   el=  0.003438   Ekb= -2.516122   kbcos= -0.010529

KBgen: Total number of  Kleinman-Bylander projectors:   16
atom: -------------------------------------------------------------------------

atom: SANKEY-TYPE ORBITALS:
atom: Selected multiple-zeta basis: split     

SPLIT: Orbitals with angular momentum L= 0

SPLIT: Basis orbitals for state 6s

SPLIT: PAO cut-off radius determinated from an
SPLIT: energy shift=  0.020000 Ry

   izeta = 1
                 lambda =    1.000000
                     rc =    6.083298
                 energy =   -0.427281
                kinetic =    0.413324
    potential(screened) =   -0.840605
       potential(ionic) =   -8.569369

   izeta = 2
                 rmatch =    5.643738
              splitnorm =    0.150000
                 energy =   -0.356838
                kinetic =    0.642757
    potential(screened) =   -0.999595
       potential(ionic) =   -9.161462

SPLIT: Orbitals with angular momentum L= 2

SPLIT: Basis orbitals for state 5d

SPLIT: PAO cut-off radius determinated from an
SPLIT: energy shift=  0.020000 Ry

   izeta = 1
                 lambda =    1.000000
                     rc =    4.286818
                 energy =   -0.507846
                kinetic =    5.140097
    potential(screened) =   -5.647943
       potential(ionic) =  -16.260097

   izeta = 2
                 rmatch =    2.802581
              splitnorm =    0.150000
                 energy =   -0.214101
                kinetic =    7.126928
    potential(screened) =   -7.341029
       potential(ionic) =  -18.741832

POLgen: Perturbative polarization orbital with L=  1

POLgen: Polarization orbital for state 6s

   izeta = 1
                     rc =    6.083298
                 energy =   -0.072727
                kinetic =    0.732634
    potential(screened) =   -0.805360
       potential(ionic) =   -8.142092
atom: Total number of Sankey-type orbitals: 15

atm_pop: Valence configuration(local Pseudopot. screening):
 6s( 1.00)                                                            
 6p( 0.00)                                                            
 5d(10.00)                                                            
Vna: chval, zval:   11.00000  11.00000

Vna:  Cut-off radius for the neutral-atom potential:   6.083298

atom: _________________________________________________________________________

<basis_specs>
===============================================================================
N                    Z=   7    Mass=  14.010        Charge=  0.0000    
Lmxo=1 Lmxkb=3     BasisType=split      Semic=F
L=0  Nsemic=0  Cnfigmx=2
          n=1  nzeta=2  polorb=0
               vcte:    0.0000    
               rinn:    0.0000    
                rcs:    0.0000      0.0000    
            lambdas:    1.0000      1.0000    
L=1  Nsemic=0  Cnfigmx=2
          n=1  nzeta=2  polorb=1
               vcte:    0.0000    
               rinn:    0.0000    
                rcs:    0.0000      0.0000    
            lambdas:    1.0000      1.0000    
-------------------------------------------------------------------------------
L=0  Nkbl=1  erefs: 0.17977+309
L=1  Nkbl=1  erefs: 0.17977+309
L=2  Nkbl=1  erefs: 0.17977+309
L=3  Nkbl=1  erefs: 0.17977+309
===============================================================================
</basis_specs>

atom: Called for N   (Z =   7)

read_vps: Pseudopotential generation method:
read_vps: ATM 3.2.2 Troullier-Martins                       

read_vps: Pseudopotential generated from a relativistic atomic calculation
read_vps: There are spin-orbit pseudopotentials available

read_vps: Valence configuration (pseudopotential and basis set generation):
2s( 2.00) rc: 1.14
2p( 3.00) rc: 1.14
3d( 0.00) rc: 1.14
4f( 0.00) rc: 1.14
Total valence charge:    5.00000

xc_check: Exchange-correlation functional:
xc_check: Ceperley-Alder
xc_check: WARNING: Pseudopotential generated with
xc_check: WARNING: GGA Perdew, Burke & Ernzerhof 1996 functional
V l=0 = -2*Zval/r beyond r=  1.2729
V l=1 = -2*Zval/r beyond r=  1.2889
V l=2 = -2*Zval/r beyond r=  1.2889
V l=3 = -2*Zval/r beyond r=  1.2889
All V_l potentials equal beyond r=  1.1233
This should be close to max(r_c) in ps generation
All pots = -2*Zval/r beyond r=  1.2889

VLOCAL1: 99.0% of the norm of Vloc inside     34.401 Ry
VLOCAL1: 99.9% of the norm of Vloc inside     78.401 Ry
atom: Maximum radius for 4*pi*r*r*local-pseudopot. charge    1.35504
atom: Maximum radius for r*vlocal+2*Zval:    1.18092
GHOST: No ghost state for L =  0
GHOST: No ghost state for L =  1
GHOST: No ghost state for L =  2
GHOST: No ghost state for L =  3

KBgen: Kleinman-Bylander projectors: 
   l= 0   rc=  1.460600   el= -1.344997   Ekb=  9.638631   kbcos=  0.297171
   l= 1   rc=  1.478977   el= -0.504850   Ekb= -6.415575   kbcos= -0.317314
   l= 2   rc=  1.634559   el=  0.002346   Ekb= -1.678090   kbcos= -0.003674
   l= 3   rc=  2.072839   el=  0.003449   Ekb= -0.793018   kbcos= -0.000316

KBgen: Total number of  Kleinman-Bylander projectors:   16
atom: -------------------------------------------------------------------------

atom: SANKEY-TYPE ORBITALS:
atom: Selected multiple-zeta basis: split     

SPLIT: Orbitals with angular momentum L= 0

SPLIT: Basis orbitals for state 2s

SPLIT: PAO cut-off radius determinated from an
SPLIT: energy shift=  0.020000 Ry

   izeta = 1
                 lambda =    1.000000
                     rc =    3.683980
                 energy =   -1.326370
                kinetic =    1.254647
    potential(screened) =   -2.581017
       potential(ionic) =   -8.161681

   izeta = 2
                 rmatch =    2.905100
              splitnorm =    0.150000
                 energy =   -1.124590
                kinetic =    1.923672
    potential(screened) =   -3.048262
       potential(ionic) =   -9.027318

SPLIT: Orbitals with angular momentum L= 1

SPLIT: Basis orbitals for state 2p

SPLIT: PAO cut-off radius determinated from an
SPLIT: energy shift=  0.020000 Ry

   izeta = 1
                 lambda =    1.000000
                     rc =    4.388595
                 energy =   -0.485851
                kinetic =    3.640453
    potential(screened) =   -4.126303
       potential(ionic) =   -9.541041

   izeta = 2
                 rmatch =    2.978652
              splitnorm =    0.150000
                 energy =   -0.267686
                kinetic =    5.503850
    potential(screened) =   -5.771536
       potential(ionic) =  -11.823923

POLgen: Perturbative polarization orbital with L=  2

POLgen: Polarization orbital for state 2p

   izeta = 1
                     rc =    4.388595
                 energy =    1.749403
                kinetic =    3.466240
    potential(screened) =   -1.716837
       potential(ionic) =   -6.139475
atom: Total number of Sankey-type orbitals: 13

atm_pop: Valence configuration(local Pseudopot. screening):
 2s( 2.00)                                                            
 2p( 3.00)                                                            
Vna: chval, zval:    5.00000   5.00000

Vna:  Cut-off radius for the neutral-atom potential:   4.388595

atom: _________________________________________________________________________

<basis_specs>
===============================================================================
C                    Z=   6    Mass=  12.010        Charge=  0.0000    
Lmxo=1 Lmxkb=3     BasisType=split      Semic=F
L=0  Nsemic=0  Cnfigmx=2
          n=1  nzeta=2  polorb=0
               vcte:    0.0000    
               rinn:    0.0000    
                rcs:    0.0000      0.0000    
            lambdas:    1.0000      1.0000    
L=1  Nsemic=0  Cnfigmx=2
          n=1  nzeta=2  polorb=1
               vcte:    0.0000    
               rinn:    0.0000    
                rcs:    0.0000      0.0000    
            lambdas:    1.0000      1.0000    
-------------------------------------------------------------------------------
L=0  Nkbl=1  erefs: 0.17977+309
L=1  Nkbl=1  erefs: 0.17977+309
L=2  Nkbl=1  erefs: 0.17977+309
L=3  Nkbl=1  erefs: 0.17977+309
===============================================================================
</basis_specs>

atom: Called for C   (Z =   6)

read_vps: Pseudopotential generation method:
read_vps: ATM3      Troullier-Martins                       

read_vps: Valence configuration (pseudopotential and basis set generation):
2s( 2.00) rc: 1.25
2p( 2.00) rc: 1.25
3d( 0.00) rc: 1.25
4f( 0.00) rc: 1.25
read_vps: Spin-orbit interaction is not included in this calculation
Total valence charge:    4.00000

xc_check: Exchange-correlation functional:
xc_check: Ceperley-Alder
V l=0 = -2*Zval/r beyond r=  1.3951
V l=1 = -2*Zval/r beyond r=  1.3777
V l=2 = -2*Zval/r beyond r=  1.3777
V l=3 = -2*Zval/r beyond r=  1.3777
All V_l potentials equal beyond r=  1.2311
This should be close to max(r_c) in ps generation
All pots = -2*Zval/r beyond r=  1.3951

VLOCAL1: 99.0% of the norm of Vloc inside     28.641 Ry
VLOCAL1: 99.9% of the norm of Vloc inside     65.273 Ry
atom: Maximum radius for 4*pi*r*r*local-pseudopot. charge    1.48507
atom: Maximum radius for r*vlocal+2*Zval:    1.27815
GHOST: No ghost state for L =  0
GHOST: No ghost state for L =  1
GHOST: No ghost state for L =  2
GHOST: No ghost state for L =  3

KBgen: Kleinman-Bylander projectors: 
   l= 0   rc=  1.600766   el= -1.001946   Ekb=  7.816946   kbcos=  0.279978
   l= 1   rc=  1.620907   el= -0.398597   Ekb= -4.829535   kbcos= -0.287433
   l= 2   rc=  1.836783   el=  0.002326   Ekb= -1.327964   kbcos= -0.005365
   l= 3   rc=  1.979871   el=  0.003420   Ekb= -0.522285   kbcos= -0.000569

KBgen: Total number of  Kleinman-Bylander projectors:   16
atom: -------------------------------------------------------------------------

atom: SANKEY-TYPE ORBITALS:
atom: Selected multiple-zeta basis: split     

SPLIT: Orbitals with angular momentum L= 0

SPLIT: Basis orbitals for state 2s

SPLIT: PAO cut-off radius determinated from an
SPLIT: energy shift=  0.020000 Ry

   izeta = 1
                 lambda =    1.000000
                     rc =    4.191849
                 energy =   -0.983900
                kinetic =    0.918801
    potential(screened) =   -1.902702
       potential(ionic) =   -5.506899

   izeta = 2
                 rmatch =    3.431921
              splitnorm =    0.150000
                 energy =   -0.849361
                kinetic =    1.377262
    potential(screened) =   -2.226623
       potential(ionic) =   -6.060758

SPLIT: Orbitals with angular momentum L= 1

SPLIT: Basis orbitals for state 2p

SPLIT: PAO cut-off radius determinated from an
SPLIT: energy shift=  0.020000 Ry

   izeta = 1
                 lambda =    1.000000
                     rc =    4.870301
                 energy =   -0.379088
                kinetic =    2.614064
    potential(screened) =   -2.993152
       potential(ionic) =   -6.506293

   izeta = 2
                 rmatch =    3.475094
              splitnorm =    0.150000
                 energy =   -0.215528
                kinetic =    3.940460
    potential(screened) =   -4.155988
       potential(ionic) =   -8.054000

POLgen: Perturbative polarization orbital with L=  2

POLgen: Polarization orbital for state 2p

   izeta = 1
                     rc =    4.870301
                 energy =    1.279486
                kinetic =    2.608016
    potential(screened) =   -1.328529
       potential(ionic) =   -4.267494
atom: Total number of Sankey-type orbitals: 13

atm_pop: Valence configuration(local Pseudopot. screening):
 2s( 2.00)                                                            
 2p( 2.00)                                                            
Vna: chval, zval:    4.00000   4.00000

Vna:  Cut-off radius for the neutral-atom potential:   4.870301

atom: _________________________________________________________________________

<basis_specs>
===============================================================================
H                    Z=   1    Mass=  1.0100        Charge=  0.0000    
Lmxo=0 Lmxkb=2     BasisType=split      Semic=F
L=0  Nsemic=0  Cnfigmx=1
          n=1  nzeta=2  polorb=1
               vcte:    0.0000    
               rinn:    0.0000    
                rcs:    0.0000      0.0000    
            lambdas:    1.0000      1.0000    
-------------------------------------------------------------------------------
L=0  Nkbl=1  erefs: 0.17977+309
L=1  Nkbl=1  erefs: 0.17977+309
L=2  Nkbl=1  erefs: 0.17977+309
===============================================================================
</basis_specs>

atom: Called for H   (Z =   1)

read_vps: Pseudopotential generation method:
read_vps: ATM3      Troullier-Martins                       

read_vps: Valence configuration (pseudopotential and basis set generation):
1s( 1.00) rc: 1.25
2p( 0.00) rc: 1.25
3d( 0.00) rc: 1.25
read_vps: Spin-orbit interaction is not included in this calculation
Total valence charge:    1.00000

xc_check: Exchange-correlation functional:
xc_check: Ceperley-Alder
V l=0 = -2*Zval/r beyond r=  1.2343
V l=1 = -2*Zval/r beyond r=  1.2189
V l=2 = -2*Zval/r beyond r=  1.2189
All V_l potentials equal beyond r=  1.2343
This should be close to max(r_c) in ps generation
All pots = -2*Zval/r beyond r=  1.2343

VLOCAL1: 99.0% of the norm of Vloc inside     28.493 Ry
VLOCAL1: 99.9% of the norm of Vloc inside     64.935 Ry
atom: Maximum radius for 4*pi*r*r*local-pseudopot. charge    1.45251
atom: Maximum radius for r*vlocal+2*Zval:    1.21892
GHOST: No ghost state for L =  0
GHOST: No ghost state for L =  1
GHOST: No ghost state for L =  2

KBgen: Kleinman-Bylander projectors: 
   l= 0   rc=  1.364359   el= -0.467325   Ekb= -2.005361   kbcos= -0.336422
   l= 1   rc=  1.434438   el=  0.001430   Ekb= -0.501708   kbcos= -0.021697
   l= 2   rc=  1.470814   el=  0.002365   Ekb= -0.190555   kbcos= -0.002281

KBgen: Total number of  Kleinman-Bylander projectors:    9
atom: -------------------------------------------------------------------------

atom: SANKEY-TYPE ORBITALS:
atom: Selected multiple-zeta basis: split     

SPLIT: Orbitals with angular momentum L= 0

SPLIT: Basis orbitals for state 1s

SPLIT: PAO cut-off radius determinated from an
SPLIT: energy shift=  0.020000 Ry

   izeta = 1
                 lambda =    1.000000
                     rc =    4.828263
                 energy =   -0.449375
                kinetic =    0.929372
    potential(screened) =   -1.378747
       potential(ionic) =   -1.915047

   izeta = 2
                 rmatch =    3.854947
              splitnorm =    0.150000
                 energy =   -0.335649
                kinetic =    1.505971
    potential(screened) =   -1.841620
       potential(ionic) =   -2.413776

POLgen: Perturbative polarization orbital with L=  1

POLgen: Polarization orbital for state 1s

   izeta = 1
                     rc =    4.828263
                 energy =    0.706972
                kinetic =    1.396397
    potential(screened) =   -0.689424
       potential(ionic) =   -1.169792
atom: Total number of Sankey-type orbitals:  5

atm_pop: Valence configuration(local Pseudopot. screening):
 1s( 1.00)                                                            
Vna: chval, zval:    1.00000   1.00000

Vna:  Cut-off radius for the neutral-atom potential:   4.828263

atom: _________________________________________________________________________

<basis_specs>
===============================================================================
Au                   Z=  79    Mass=  196.97        Charge=  0.0000    
Lmxo=2 Lmxkb=3     BasisType=split      Semic=F
L=0  Nsemic=0  Cnfigmx=6
          n=1  nzeta=1  polorb=0
               vcte:    0.0000    
               rinn:    0.0000    
                rcs:    6.5000    
            lambdas:    1.0000    
L=1  Nsemic=0  Cnfigmx=6
L=2  Nsemic=0  Cnfigmx=5
          n=1  nzeta=1  polorb=0
               vcte:    0.0000    
               rinn:    0.0000    
                rcs:    5.8500    
            lambdas:    1.0000    
-------------------------------------------------------------------------------
L=0  Nkbl=1  erefs: 0.17977+309
L=1  Nkbl=1  erefs: 0.17977+309
L=2  Nkbl=1  erefs: 0.17977+309
L=3  Nkbl=1  erefs: 0.17977+309
===============================================================================
</basis_specs>

atom: Called for Au  (Z =  79)

read_vps: Pseudopotential generation method:
read_vps: ATM3      Troullier-Martins                       

read_vps: Pseudopotential generated from a relativistic atomic calculation
read_vps: There are spin-orbit pseudopotentials available

read_vps: Valence configuration (pseudopotential and basis set generation):
6s( 1.00) rc: 2.18
6p( 0.00) rc: 2.47
5d(10.00) rc: 1.79
5f( 0.00) rc: 2.00
Total valence charge:   11.00000

read_vps: Pseudopotential includes a core correction:
read_vps: Pseudo-core for xc-correction
comcore: Pseudo-core radius Rcore=  4.027091

xc_check: Exchange-correlation functional:
xc_check: Ceperley-Alder
V l=0 = -2*Zval/r beyond r=  2.9833
V l=1 = -2*Zval/r beyond r=  2.9833
V l=2 = -2*Zval/r beyond r=  2.9833
V l=3 = -2*Zval/r beyond r=  2.9833
All V_l potentials equal beyond r=  2.4425
This should be close to max(r_c) in ps generation
All pots = -2*Zval/r beyond r=  2.9833

VLOCAL1: 99.0% of the norm of Vloc inside      7.276 Ry
VLOCAL1: 99.9% of the norm of Vloc inside     16.582 Ry
atom: Maximum radius for 4*pi*r*r*local-pseudopot. charge    2.94627
atom: Maximum radius for r*vlocal+2*Zval:    2.60007
GHOST: No ghost state for L =  0
GHOST: No ghost state for L =  1
GHOST: No ghost state for L =  2
GHOST: No ghost state for L =  3

KBgen: Kleinman-Bylander projectors: 
   l= 0   rc=  3.175745   el= -0.445638   Ekb=  5.072790   kbcos=  0.276607
   l= 1   rc=  3.256140   el= -0.066324   Ekb=  2.703235   kbcos=  0.227171
   l= 2   rc=  3.020861   el= -0.526103   Ekb= -4.704026   kbcos= -0.643795
   l= 3   rc=  3.466145   el=  0.003438   Ekb= -2.516122   kbcos= -0.010529

KBgen: Total number of  Kleinman-Bylander projectors:   16
atom: -------------------------------------------------------------------------

atom: SANKEY-TYPE ORBITALS:

SPLIT: Orbitals with angular momentum L= 0

SPLIT: Basis orbitals for state 6s

   izeta = 1
                 lambda =    1.000000
                     rc =    6.557093
                 energy =   -0.435455
                kinetic =    0.389259
    potential(screened) =   -0.824714
       potential(ionic) =   -8.467175

SPLIT: Orbitals with angular momentum L= 2

SPLIT: Basis orbitals for state 5d

   izeta = 1
                 lambda =    1.000000
                     rc =    5.933100
                 energy =   -0.524775
                kinetic =    4.913203
    potential(screened) =   -5.437978
       potential(ionic) =  -15.883506
atom: Total number of Sankey-type orbitals:  6

atm_pop: Valence configuration(local Pseudopot. screening):
 6s( 1.00)                                                            
 6p( 0.00)                                                            
 5d(10.00)                                                            
Vna: chval, zval:   11.00000  11.00000

Vna:  Cut-off radius for the neutral-atom potential:   6.557093

atom: _________________________________________________________________________

<basis_specs>
===============================================================================
Au_surf              Z=  79    Mass=  196.97        Charge=  0.0000    
Lmxo=2 Lmxkb=3     BasisType=split      Semic=F
L=0  Nsemic=0  Cnfigmx=6
          n=1  nzeta=2  polorb=1
               vcte:    0.0000    
               rinn:    0.0000    
                rcs:    0.0000      0.0000    
            lambdas:    1.0000      1.0000    
L=1  Nsemic=0  Cnfigmx=6
L=2  Nsemic=0  Cnfigmx=5
          n=1  nzeta=2  polorb=0
               vcte:    0.0000    
               rinn:    0.0000    
                rcs:    0.0000      0.0000    
            lambdas:    1.0000      1.0000    
-------------------------------------------------------------------------------
L=0  Nkbl=1  erefs: 0.17977+309
L=1  Nkbl=1  erefs: 0.17977+309
L=2  Nkbl=1  erefs: 0.17977+309
L=3  Nkbl=1  erefs: 0.17977+309
===============================================================================
</basis_specs>

atom: Called for Au  (Z =  79)

read_vps: Pseudopotential generation method:
read_vps: ATM3      Troullier-Martins                       

read_vps: Pseudopotential generated from a relativistic atomic calculation
read_vps: There are spin-orbit pseudopotentials available

read_vps: Valence configuration (pseudopotential and basis set generation):
6s( 1.00) rc: 2.18
6p( 0.00) rc: 2.47
5d(10.00) rc: 1.79
5f( 0.00) rc: 2.00
Total valence charge:   11.00000

read_vps: Pseudopotential includes a core correction:
read_vps: Pseudo-core for xc-correction
comcore: Pseudo-core radius Rcore=  4.027091

xc_check: Exchange-correlation functional:
xc_check: Ceperley-Alder
V l=0 = -2*Zval/r beyond r=  2.9833
V l=1 = -2*Zval/r beyond r=  2.9833
V l=2 = -2*Zval/r beyond r=  2.9833
V l=3 = -2*Zval/r beyond r=  2.9833
All V_l potentials equal beyond r=  2.4425
This should be close to max(r_c) in ps generation
All pots = -2*Zval/r beyond r=  2.9833

VLOCAL1: 99.0% of the norm of Vloc inside      7.276 Ry
VLOCAL1: 99.9% of the norm of Vloc inside     16.582 Ry
atom: Maximum radius for 4*pi*r*r*local-pseudopot. charge    2.94627
atom: Maximum radius for r*vlocal+2*Zval:    2.60007
GHOST: No ghost state for L =  0
GHOST: No ghost state for L =  1
GHOST: No ghost state for L =  2
GHOST: No ghost state for L =  3

KBgen: Kleinman-Bylander projectors: 
   l= 0   rc=  3.175745   el= -0.445638   Ekb=  5.072790   kbcos=  0.276607
   l= 1   rc=  3.256140   el= -0.066324   Ekb=  2.703235   kbcos=  0.227171
   l= 2   rc=  3.020861   el= -0.526103   Ekb= -4.704026   kbcos= -0.643795
   l= 3   rc=  3.466145   el=  0.003438   Ekb= -2.516122   kbcos= -0.010529

KBgen: Total number of  Kleinman-Bylander projectors:   16
atom: -------------------------------------------------------------------------

atom: SANKEY-TYPE ORBITALS:
atom: Selected multiple-zeta basis: split     

SPLIT: Orbitals with angular momentum L= 0

SPLIT: Basis orbitals for state 6s

SPLIT: PAO cut-off radius determinated from an
SPLIT: energy shift=  0.020000 Ry

   izeta = 1
                 lambda =    1.000000
                     rc =    6.083298
                 energy =   -0.427281
                kinetic =    0.413324
    potential(screened) =   -0.840605
       potential(ionic) =   -8.569369

   izeta = 2
                 rmatch =    5.643738
              splitnorm =    0.150000
                 energy =   -0.356838
                kinetic =    0.642757
    potential(screened) =   -0.999595
       potential(ionic) =   -9.161462

SPLIT: Orbitals with angular momentum L= 2

SPLIT: Basis orbitals for state 5d

SPLIT: PAO cut-off radius determinated from an
SPLIT: energy shift=  0.020000 Ry

   izeta = 1
                 lambda =    1.000000
                     rc =    4.286818
                 energy =   -0.507846
                kinetic =    5.140097
    potential(screened) =   -5.647943
       potential(ionic) =  -16.260097

   izeta = 2
                 rmatch =    2.802581
              splitnorm =    0.150000
                 energy =   -0.214101
                kinetic =    7.126928
    potential(screened) =   -7.341029
       potential(ionic) =  -18.741832

POLgen: Perturbative polarization orbital with L=  1

POLgen: Polarization orbital for state 6s

   izeta = 1
                     rc =    6.083298
                 energy =   -0.072727
                kinetic =    0.732634
    potential(screened) =   -0.805360
       potential(ionic) =   -8.142092
atom: Total number of Sankey-type orbitals: 15

atm_pop: Valence configuration(local Pseudopot. screening):
 6s( 1.00)                                                            
 6p( 0.00)                                                            
 5d(10.00)                                                            
Vna: chval, zval:   11.00000  11.00000

Vna:  Cut-off radius for the neutral-atom potential:   6.083298

atom: _________________________________________________________________________

<basis_specs>
===============================================================================
Au_tip               Z=  79    Mass=  196.97        Charge=  0.0000    
Lmxo=2 Lmxkb=3     BasisType=split      Semic=F
L=0  Nsemic=0  Cnfigmx=6
          n=1  nzeta=2  polorb=1
               vcte:    0.0000    
               rinn:    0.0000    
                rcs:    0.0000      0.0000    
            lambdas:    1.0000      1.0000    
L=1  Nsemic=0  Cnfigmx=6
L=2  Nsemic=0  Cnfigmx=5
          n=1  nzeta=2  polorb=0
               vcte:    0.0000    
               rinn:    0.0000    
                rcs:    0.0000      0.0000    
            lambdas:    1.0000      1.0000    
-------------------------------------------------------------------------------
L=0  Nkbl=1  erefs: 0.17977+309
L=1  Nkbl=1  erefs: 0.17977+309
L=2  Nkbl=1  erefs: 0.17977+309
L=3  Nkbl=1  erefs: 0.17977+309
===============================================================================
</basis_specs>

atom: Called for Au  (Z =  79)

read_vps: Pseudopotential generation method:
read_vps: ATM3      Troullier-Martins                       

read_vps: Pseudopotential generated from a relativistic atomic calculation
read_vps: There are spin-orbit pseudopotentials available

read_vps: Valence configuration (pseudopotential and basis set generation):
6s( 1.00) rc: 2.18
6p( 0.00) rc: 2.47
5d(10.00) rc: 1.79
5f( 0.00) rc: 2.00
Total valence charge:   11.00000

read_vps: Pseudopotential includes a core correction:
read_vps: Pseudo-core for xc-correction
comcore: Pseudo-core radius Rcore=  4.027091

xc_check: Exchange-correlation functional:
xc_check: Ceperley-Alder
V l=0 = -2*Zval/r beyond r=  2.9833
V l=1 = -2*Zval/r beyond r=  2.9833
V l=2 = -2*Zval/r beyond r=  2.9833
V l=3 = -2*Zval/r beyond r=  2.9833
All V_l potentials equal beyond r=  2.4425
This should be close to max(r_c) in ps generation
All pots = -2*Zval/r beyond r=  2.9833

VLOCAL1: 99.0% of the norm of Vloc inside      7.276 Ry
VLOCAL1: 99.9% of the norm of Vloc inside     16.582 Ry
atom: Maximum radius for 4*pi*r*r*local-pseudopot. charge    2.94627
atom: Maximum radius for r*vlocal+2*Zval:    2.60007
GHOST: No ghost state for L =  0
GHOST: No ghost state for L =  1
GHOST: No ghost state for L =  2
GHOST: No ghost state for L =  3

KBgen: Kleinman-Bylander projectors: 
   l= 0   rc=  3.175745   el= -0.445638   Ekb=  5.072790   kbcos=  0.276607
   l= 1   rc=  3.256140   el= -0.066324   Ekb=  2.703235   kbcos=  0.227171
   l= 2   rc=  3.020861   el= -0.526103   Ekb= -4.704026   kbcos= -0.643795
   l= 3   rc=  3.466145   el=  0.003438   Ekb= -2.516122   kbcos= -0.010529

KBgen: Total number of  Kleinman-Bylander projectors:   16
atom: -------------------------------------------------------------------------

atom: SANKEY-TYPE ORBITALS:
atom: Selected multiple-zeta basis: split     

SPLIT: Orbitals with angular momentum L= 0

SPLIT: Basis orbitals for state 6s

SPLIT: PAO cut-off radius determinated from an
SPLIT: energy shift=  0.020000 Ry

   izeta = 1
                 lambda =    1.000000
                     rc =    6.083298
                 energy =   -0.427281
                kinetic =    0.413324
    potential(screened) =   -0.840605
       potential(ionic) =   -8.569369

   izeta = 2
                 rmatch =    5.643738
              splitnorm =    0.150000
                 energy =   -0.356838
                kinetic =    0.642757
    potential(screened) =   -0.999595
       potential(ionic) =   -9.161462

SPLIT: Orbitals with angular momentum L= 2

SPLIT: Basis orbitals for state 5d

SPLIT: PAO cut-off radius determinated from an
SPLIT: energy shift=  0.020000 Ry

   izeta = 1
                 lambda =    1.000000
                     rc =    4.286818
                 energy =   -0.507846
                kinetic =    5.140097
    potential(screened) =   -5.647943
       potential(ionic) =  -16.260097

   izeta = 2
                 rmatch =    2.802581
              splitnorm =    0.150000
                 energy =   -0.214101
                kinetic =    7.126928
    potential(screened) =   -7.341029
       potential(ionic) =  -18.741832

POLgen: Perturbative polarization orbital with L=  1

POLgen: Polarization orbital for state 6s

   izeta = 1
                     rc =    6.083298
                 energy =   -0.072727
                kinetic =    0.732634
    potential(screened) =   -0.805360
       potential(ionic) =   -8.142092
atom: Total number of Sankey-type orbitals: 15

atm_pop: Valence configuration(local Pseudopot. screening):
 6s( 1.00)                                                            
 6p( 0.00)                                                            
 5d(10.00)                                                            
Vna: chval, zval:   11.00000  11.00000

Vna:  Cut-off radius for the neutral-atom potential:   6.083298

atom: _________________________________________________________________________

prinput: Basis input ----------------------------------------------------------

PAO.BasisType split     

%block ChemicalSpeciesLabel
    1   79 Au_bulk                 # Species index, atomic number, species label
    2    7 N                       # Species index, atomic number, species label
    3    6 C                       # Species index, atomic number, species label
    4    1 H                       # Species index, atomic number, species label
    5   79 Au                      # Species index, atomic number, species label
    6   79 Au_surf                 # Species index, atomic number, species label
    7   79 Au_tip                  # Species index, atomic number, species label
%endblock ChemicalSpeciesLabel

%block PAO.Basis                 # Define Basis set
Au_bulk     2                    # Species label, number of l-shells
 n=6   0   2 P   1                   # n, l, Nzeta, Polarization, NzetaPol
   6.083      5.644   
   1.000      1.000   
 n=5   2   2                         # n, l, Nzeta 
   4.287      2.803   
   1.000      1.000   
N           2                    # Species label, number of l-shells
 n=2   0   2                         # n, l, Nzeta 
   3.684      2.905   
   1.000      1.000   
 n=2   1   2 P   1                   # n, l, Nzeta, Polarization, NzetaPol
   4.389      2.979   
   1.000      1.000   
C           2                    # Species label, number of l-shells
 n=2   0   2                         # n, l, Nzeta 
   4.192      3.432   
   1.000      1.000   
 n=2   1   2 P   1                   # n, l, Nzeta, Polarization, NzetaPol
   4.870      3.475   
   1.000      1.000   
H           1                    # Species label, number of l-shells
 n=1   0   2 P   1                   # n, l, Nzeta, Polarization, NzetaPol
   4.828      3.855   
   1.000      1.000   
Au          2                    # Species label, number of l-shells
 n=6   0   1                         # n, l, Nzeta 
   6.557   
   1.000   
 n=5   2   1                         # n, l, Nzeta 
   5.933   
   1.000   
Au_surf     2                    # Species label, number of l-shells
 n=6   0   2 P   1                   # n, l, Nzeta, Polarization, NzetaPol
   6.083      5.644   
   1.000      1.000   
 n=5   2   2                         # n, l, Nzeta 
   4.287      2.803   
   1.000      1.000   
Au_tip      2                    # Species label, number of l-shells
 n=6   0   2 P   1                   # n, l, Nzeta, Polarization, NzetaPol
   6.083      5.644   
   1.000      1.000   
 n=5   2   2                         # n, l, Nzeta 
   4.287      2.803   
   1.000      1.000   
%endblock PAO.Basis

prinput: ----------------------------------------------------------------------


siesta: ******************** Simulation parameters ****************************
siesta:
siesta: The following are some of the parameters of the simulation.
siesta: A complete list of the parameters used, including defect values,
siesta: can be found in file out.fdf
siesta:
coor:   Atomic-coordinates input format  =     Cartesian coordinates
coor:                                          (in Angstroms)
redata: Number of spin components        =     1
redata: SpinOrbit                        =     0
redata: Long output                      =     F
redata: Number of Atomic Species         =     7
redata: Charge density info will appear in .RHO file
redata: Write Mulliken Pop.              =     NO
redata: Write Hamilton Pop.              =     NO
redata: Mesh Cutoff                      =   200.0000  Ry
redata: Net charge of the system         =     0.0000 |e|
redata: Max. number of SCF Iter          =   500
redata: One Pulay mixing every           =     4 iterations
redata: Mix DM in first SCF step ?       =     T
redata: Write Pulay info on disk?        =     F
redata: New DM Mixing Weight             =     0.1000
redata: No kicks to SCF
redata: DM Mixing Weight for Kicks       =     0.5000
redata: DM Tolerance for SCF             =     0.000100
redata: Use continuation files for DM    =     T
redata: Neglect nonoverlap interactions  =     F
redata: Method of Calculation            =     Diagonalization
redata: Divide and Conquer               =     F
redata: Electronic Temperature           =     0.0019  Ry
redata: Fix the spin of the system       =     F
redata: Dynamics option                  =     CG coord. optimization
redata: Variable cell                    =     F
redata: Use continuation files for CG    =     F
redata: Maximum number of CG moves       =     0
redata: Max atomic displ per move        =     0.2000  Bohr
redata: Force tolerance                  =     0.0016  Ry/Bohr
redata: ***********************************************************************

siesta: Atomic coordinates (Bohr) and species
siesta:      0.00000   0.00000   0.00000  1        1
siesta:      0.00000   5.58414   0.00000  1        2
siesta:      0.00000  11.17018   0.00000  1        3
siesta:      5.58603   0.00000   0.00000  1        4
siesta:      5.58603   5.58414   0.00000  1        5
siesta:      5.58603  11.17018   0.00000  1        6
siesta:     11.17207   0.00000   0.00000  1        7
siesta:     11.17207   5.58414   0.00000  1        8
siesta:     11.17207  11.17018   0.00000  1        9
siesta:     16.38393   0.00000   0.00000  1       10
siesta:     16.38393   5.58414   0.00000  1       11
siesta:     16.38393  11.17018   0.00000  1       12
siesta:     21.96996   0.00000   0.00000  1       13
siesta:     21.96996   5.58414   0.00000  1       14
siesta:     21.96996  11.17018   0.00000  1       15
siesta:      2.79302   2.79302   3.94953  1       16
siesta:      2.79302   8.37716   3.94953  1       17
siesta:      2.79302  13.96319   3.94953  1       18
siesta:      8.37905   2.79302   3.94953  1       19
siesta:      8.37905   8.37716   3.94953  1       20
siesta:      8.37905  13.96319   3.94953  1       21
siesta:     13.59092   2.79302   3.94953  1       22
siesta:     13.59092   8.37716   3.94953  1       23
siesta:     13.59092  13.96319   3.94953  1       24
siesta:     19.17695   2.79302   3.94953  1       25
siesta:     19.17695   8.37716   3.94953  1       26
siesta:     19.17695  13.96319   3.94953  1       27
siesta:     24.76298   2.79302   3.94953  1       28
siesta:     24.76298   8.37716   3.94953  1       29
siesta:     24.76298  13.96319   3.94953  1       30
siesta:      0.00000   0.00000   7.89906  1       31
siesta:      0.00000   5.58414   7.89906  1       32
siesta:      0.00000  11.17018   7.89906  1       33
siesta:      5.58603   0.00000   7.89906  1       34
siesta:      5.58603   5.58414   7.89906  1       35
siesta:      5.58603  11.17018   7.89906  1       36
siesta:     11.17207   0.00000   7.89906  1       37
siesta:     11.17207   5.58414   7.89906  1       38
siesta:     11.17207  11.17018   7.89906  1       39
siesta:     16.38393   0.00000   7.89906  1       40
siesta:     16.38393   5.58414   7.89906  1       41
siesta:     16.38393  11.17018   7.89906  1       42
siesta:     21.96996   0.00000   7.89906  1       43
siesta:     21.96996   5.58414   7.89906  1       44
siesta:     21.96996  11.17018   7.89906  1       45
siesta:      2.79302   2.79302  11.84859  1       46
siesta:      2.79302   8.37716  11.84859  1       47
siesta:      2.79302  13.96319  11.84859  1       48
siesta:      8.37905   2.79302  11.84859  1       49
siesta:      8.37905   8.37716  11.84859  1       50
siesta:      8.37905  13.96319  11.84859  1       51
siesta:     13.59092   2.79302  11.84859  1       52
siesta:     13.59092   8.37716  11.84859  1       53
siesta:     13.59092  13.96319  11.84859  1       54
siesta:     19.17695   2.79302  11.84859  1       55
siesta:     19.17695   8.37716  11.84859  1       56
siesta:     19.17695  13.96319  11.84859  1       57
siesta:     24.76298   2.79302  11.84859  1       58
siesta:     24.76298   8.37716  11.84859  1       59
siesta:     24.76298  13.96319  11.84859  1       60
siesta:      0.00000   0.00000  15.79812  5       61
siesta:      0.00000   5.58414  15.79812  5       62
siesta:      0.00000  11.17018  15.79812  5       63
siesta:      5.58603   0.00000  15.79812  5       64
siesta:      5.58603   5.58414  15.79812  5       65
siesta:      5.58603  11.17018  15.79812  5       66
siesta:     11.17207   0.00000  15.79812  5       67
siesta:     11.17207   5.58414  15.79812  5       68
siesta:     11.17207  11.17018  15.79812  5       69
siesta:     16.38393   0.00000  15.79812  5       70
siesta:     16.38393   5.58414  15.79812  5       71
siesta:     16.38393  11.17018  15.79812  5       72
siesta:     21.96996   0.00000  15.79812  5       73
siesta:     21.96996   5.58414  15.79812  5       74
siesta:     21.96996  11.17018  15.79812  5       75
siesta:      2.79302   2.79302  19.74765  6       76
siesta:      2.79302   8.37716  19.74765  6       77
siesta:      2.79302  13.96319  19.74765  6       78
siesta:      8.37905   2.79302  19.74765  6       79
siesta:      8.37905   8.37716  19.74765  6       80
siesta:      8.37905  13.96319  19.74765  6       81
siesta:     13.59092   2.79302  19.74765  6       82
siesta:     13.59092   8.37716  19.74765  6       83
siesta:     13.59092  13.96319  19.74765  6       84
siesta:     19.17695   2.79302  19.74765  6       85
siesta:     19.17695   8.37716  19.74765  6       86
siesta:     19.17695  13.96319  19.74765  6       87
siesta:     24.76298   2.79302  19.74765  6       88
siesta:     24.76298   8.37716  19.74765  6       89
siesta:     24.76298  13.96319  19.74765  6       90
siesta:      9.17538  11.17188  22.73682  2       91
siesta:     18.00532  11.17528  22.74097  2       92
siesta:     13.59092  11.21364  22.75231  2       93
siesta:      7.70070  11.15874  23.99357  4       94
siesta:     19.45283  11.16113  24.03077  4       95
siesta:     11.35726  11.17216  24.12391  3       96
siesta:     15.82655  11.17388  24.11433  3       97
siesta:     15.88265  11.12933  26.63393  2       98
siesta:     11.29839  11.12719  26.63426  2       99
siesta:     13.59535  11.11144  27.78110  3      100
siesta:     13.58946  11.05888  30.33129  2      101
siesta:     11.92160  11.07674  31.27203  4      102
siesta:     15.25185  11.07784  31.28176  4      103
siesta:     13.81768  11.21364  39.76552  7      104
siesta:     10.98498  14.04823  43.44860  7      105
siesta:     16.65416   8.37905  43.44860  7      106
siesta:     10.98498   8.37716  43.44860  7      107
siesta:     16.65416  14.04823  43.44860  7      108
siesta:      2.79302   2.79302  47.39813  5      109
siesta:      2.79302   8.37716  47.39813  5      110
siesta:      2.79302  13.96319  47.39813  5      111
siesta:      8.37905   2.79302  47.39813  5      112
siesta:      8.37905   8.37716  47.39813  5      113
siesta:      8.37905  13.96319  47.39813  5      114
siesta:     13.59092   2.79302  47.39813  5      115
siesta:     13.59092   8.37716  47.39813  5      116
siesta:     13.59092  13.96319  47.39813  5      117
siesta:     19.17695   2.79302  47.39813  5      118
siesta:     19.17695   8.37716  47.39813  5      119
siesta:     19.17695  13.96319  47.39813  5      120
siesta:     24.76298   2.79302  47.39813  5      121
siesta:     24.76298   8.37716  47.39813  5      122
siesta:     24.76298  13.96319  47.39813  5      123
siesta:      0.00000   0.00000  51.34766  1      124
siesta:      0.00000   5.58414  51.34766  1      125
siesta:      0.00000  11.17018  51.34766  1      126
siesta:      5.58603   0.00000  51.34766  1      127
siesta:      5.58603   5.58414  51.34766  1      128
siesta:      5.58603  11.17018  51.34766  1      129
siesta:     11.17207   0.00000  51.34766  1      130
siesta:     11.17207   5.58414  51.34766  1      131
siesta:     11.17207  11.17018  51.34766  1      132
siesta:     16.38393   0.00000  51.34766  1      133
siesta:     16.38393   5.58414  51.34766  1      134
siesta:     16.38393  11.17018  51.34766  1      135
siesta:     21.96996   0.00000  51.34766  1      136
siesta:     21.96996   5.58414  51.34766  1      137
siesta:     21.96996  11.17018  51.34766  1      138
siesta:      2.79302   2.79302  55.29719  1      139
siesta:      2.79302   8.37716  55.29719  1      140
siesta:      2.79302  13.96319  55.29719  1      141
siesta:      8.37905   2.79302  55.29719  1      142
siesta:      8.37905   8.37716  55.29719  1      143
siesta:      8.37905  13.96319  55.29719  1      144
siesta:     13.59092   2.79302  55.29719  1      145
siesta:     13.59092   8.37716  55.29719  1      146
siesta:     13.59092  13.96319  55.29719  1      147
siesta:     19.17695   2.79302  55.29719  1      148
siesta:     19.17695   8.37716  55.29719  1      149
siesta:     19.17695  13.96319  55.29719  1      150
siesta:     24.76298   2.79302  55.29719  1      151
siesta:     24.76298   8.37716  55.29719  1      152
siesta:     24.76298  13.96319  55.29719  1      153
siesta:      0.00000   0.00000  59.24672  1      154
siesta:      0.00000   5.58414  59.24672  1      155
siesta:      0.00000  11.17018  59.24672  1      156
siesta:      5.58603   0.00000  59.24672  1      157
siesta:      5.58603   5.58414  59.24672  1      158
siesta:      5.58603  11.17018  59.24672  1      159
siesta:     11.17207   0.00000  59.24672  1      160
siesta:     11.17207   5.58414  59.24672  1      161
siesta:     11.17207  11.17018  59.24672  1      162
siesta:     16.38393   0.00000  59.24672  1      163
siesta:     16.38393   5.58414  59.24672  1      164
siesta:     16.38393  11.17018  59.24672  1      165
siesta:     21.96996   0.00000  59.24672  1      166
siesta:     21.96996   5.58414  59.24672  1      167
siesta:     21.96996  11.17018  59.24672  1      168
siesta:      2.79302   2.79302  63.19625  1      169
siesta:      2.79302   8.37716  63.19625  1      170
siesta:      2.79302  13.96319  63.19625  1      171
siesta:      8.37905   2.79302  63.19625  1      172
siesta:      8.37905   8.37716  63.19625  1      173
siesta:      8.37905  13.96319  63.19625  1      174
siesta:     13.59092   2.79302  63.19625  1      175
siesta:     13.59092   8.37716  63.19625  1      176
siesta:     13.59092  13.96319  63.19625  1      177
siesta:     19.17695   2.79302  63.19625  1      178
siesta:     19.17695   8.37716  63.19625  1      179
siesta:     19.17695  13.96319  63.19625  1      180
siesta:     24.76298   2.79302  63.19625  1      181
siesta:     24.76298   8.37716  63.19625  1      182
siesta:     24.76298  13.96319  63.19625  1      183

initatomlists: Number of atoms, orbitals, and projectors:    183  2417  2900

siesta: System type = bulk      
 Nodes, Orbitals          64        2417
 blocksizedefault           8

* ProcessorY, Blocksize:    8   8


siesta: k-grid: Number of k-points =     6
siesta: k-grid: Cutoff             =    14.582 Ang
siesta: k-grid: Supercell and displacements
siesta: k-grid:    2   0   0      0.000
siesta: k-grid:    0   4   0      0.000
siesta: k-grid:    0   0   1      0.000
siesta: overlap:  rmaxh   veclen  direction
siesta: overlap:  20.0465 27.5560   1
siesta: overlap:  rmaxh   veclen  direction
siesta: overlap:  20.0465 16.7543   2
siesta: overlap:  rmaxh   veclen  direction
siesta: overlap:  20.0465 67.1458   3
 label:           1 Au_bulk                        1 s      
 label:           2 Au_bulk                        1 s      
 label:           3 Au_bulk                        1 dxy    
 label:           4 Au_bulk                        1 dyz    
 label:           5 Au_bulk                        1 dz2    
 label:           6 Au_bulk                        1 dxz    
 label:           7 Au_bulk                        1 dx2-y2 
 label:           8 Au_bulk                        1 dxy    
 label:           9 Au_bulk                        1 dyz    
 label:          10 Au_bulk                        1 dz2    
 label:          11 Au_bulk                        1 dxz    
 label:          12 Au_bulk                        1 dx2-y2 
 label:          13 Au_bulk                        1 Ppy    
 label:          14 Au_bulk                        1 Ppz    
 label:          15 Au_bulk                        1 Ppx    
 label:          16 Au_bulk                        2 s      
 label:          17 Au_bulk                        2 s      
 label:          18 Au_bulk                        2 dxy    
 label:          19 Au_bulk                        2 dyz    
 label:          20 Au_bulk                        2 dz2    
 label:          21 Au_bulk                        2 dxz    
 label:          22 Au_bulk                        2 dx2-y2 
 label:          23 Au_bulk                        2 dxy    
 label:          24 Au_bulk                        2 dyz    
 label:          25 Au_bulk                        2 dz2    
 label:          26 Au_bulk                        2 dxz    
 label:          27 Au_bulk                        2 dx2-y2 
 label:          28 Au_bulk                        2 Ppy    
 label:          29 Au_bulk                        2 Ppz    
 label:          30 Au_bulk                        2 Ppx    
 label:          31 Au_bulk                        3 s      
 label:          32 Au_bulk                        3 s      
 label:          33 Au_bulk                        3 dxy    
 label:          34 Au_bulk                        3 dyz    
 label:          35 Au_bulk                        3 dz2    
 label:          36 Au_bulk                        3 dxz    
 label:          37 Au_bulk                        3 dx2-y2 
 label:          38 Au_bulk                        3 dxy    
 label:          39 Au_bulk                        3 dyz    
 label:          40 Au_bulk                        3 dz2    
 label:          41 Au_bulk                        3 dxz    
 label:          42 Au_bulk                        3 dx2-y2 
 label:          43 Au_bulk                        3 Ppy    
 label:          44 Au_bulk                        3 Ppz    
 label:          45 Au_bulk                        3 Ppx    
 label:          46 Au_bulk                        4 s      
 label:          47 Au_bulk                        4 s      
 label:          48 Au_bulk                        4 dxy    
 label:          49 Au_bulk                        4 dyz    
 label:          50 Au_bulk                        4 dz2    
 label:          51 Au_bulk                        4 dxz    
 label:          52 Au_bulk                        4 dx2-y2 
 label:          53 Au_bulk                        4 dxy    
 label:          54 Au_bulk                        4 dyz    
 label:          55 Au_bulk                        4 dz2    
 label:          56 Au_bulk                        4 dxz    
 label:          57 Au_bulk                        4 dx2-y2 
 label:          58 Au_bulk                        4 Ppy    
 label:          59 Au_bulk                        4 Ppz    
 label:          60 Au_bulk                        4 Ppx    
 label:          61 Au_bulk                        5 s      
 label:          62 Au_bulk                        5 s      
 label:          63 Au_bulk                        5 dxy    
 label:          64 Au_bulk                        5 dyz    
 label:          65 Au_bulk                        5 dz2    
 label:          66 Au_bulk                        5 dxz    
 label:          67 Au_bulk                        5 dx2-y2 
 label:          68 Au_bulk                        5 dxy    
 label:          69 Au_bulk                        5 dyz    
 label:          70 Au_bulk                        5 dz2    
 label:          71 Au_bulk                        5 dxz    
 label:          72 Au_bulk                        5 dx2-y2 
 label:          73 Au_bulk                        5 Ppy    
 label:          74 Au_bulk                        5 Ppz    
 label:          75 Au_bulk                        5 Ppx    
 label:          76 Au_bulk                        6 s      
 label:          77 Au_bulk                        6 s      
 label:          78 Au_bulk                        6 dxy    
 label:          79 Au_bulk                        6 dyz    
 label:          80 Au_bulk                        6 dz2    
 label:          81 Au_bulk                        6 dxz    
 label:          82 Au_bulk                        6 dx2-y2 
 label:          83 Au_bulk                        6 dxy    
 label:          84 Au_bulk                        6 dyz    
 label:          85 Au_bulk                        6 dz2    
 label:          86 Au_bulk                        6 dxz    
 label:          87 Au_bulk                        6 dx2-y2 
 label:          88 Au_bulk                        6 Ppy    
 label:          89 Au_bulk                        6 Ppz    
 label:          90 Au_bulk                        6 Ppx    
 label:          91 Au_bulk                        7 s      
 label:          92 Au_bulk                        7 s      
 label:          93 Au_bulk                        7 dxy    
 label:          94 Au_bulk                        7 dyz    
 label:          95 Au_bulk                        7 dz2    
 label:          96 Au_bulk                        7 dxz    
 label:          97 Au_bulk                        7 dx2-y2 
 label:          98 Au_bulk                        7 dxy    
 label:          99 Au_bulk                        7 dyz    
 label:         100 Au_bulk                        7 dz2    
 label:         101 Au_bulk                        7 dxz    
 label:         102 Au_bulk                        7 dx2-y2 
 label:         103 Au_bulk                        7 Ppy    
 label:         104 Au_bulk                        7 Ppz    
 label:         105 Au_bulk                        7 Ppx    
 label:         106 Au_bulk                        8 s      
 label:         107 Au_bulk                        8 s      
 label:         108 Au_bulk                        8 dxy    
 label:         109 Au_bulk                        8 dyz    
 label:         110 Au_bulk                        8 dz2    
 label:         111 Au_bulk                        8 dxz    
 label:         112 Au_bulk                        8 dx2-y2 
 label:         113 Au_bulk                        8 dxy    
 label:         114 Au_bulk                        8 dyz    
 label:         115 Au_bulk                        8 dz2    
 label:         116 Au_bulk                        8 dxz    
 label:         117 Au_bulk                        8 dx2-y2 
 label:         118 Au_bulk                        8 Ppy    
 label:         119 Au_bulk                        8 Ppz    
 label:         120 Au_bulk                        8 Ppx    
 label:         121 Au_bulk                        9 s      
 label:         122 Au_bulk                        9 s      
 label:         123 Au_bulk                        9 dxy    
 label:         124 Au_bulk                        9 dyz    
 label:         125 Au_bulk                        9 dz2    
 label:         126 Au_bulk                        9 dxz    
 label:         127 Au_bulk                        9 dx2-y2 
 label:         128 Au_bulk                        9 dxy    
 label:         129 Au_bulk                        9 dyz    
 label:         130 Au_bulk                        9 dz2    
 label:         131 Au_bulk                        9 dxz    
 label:         132 Au_bulk                        9 dx2-y2 
 label:         133 Au_bulk                        9 Ppy    
 label:         134 Au_bulk                        9 Ppz    
 label:         135 Au_bulk                        9 Ppx    
 label:         136 Au_bulk                       10 s      
 label:         137 Au_bulk                       10 s      
 label:         138 Au_bulk                       10 dxy    
 label:         139 Au_bulk                       10 dyz    
 label:         140 Au_bulk                       10 dz2    
 label:         141 Au_bulk                       10 dxz    
 label:         142 Au_bulk                       10 dx2-y2 
 label:         143 Au_bulk                       10 dxy    
 label:         144 Au_bulk                       10 dyz    
 label:         145 Au_bulk                       10 dz2    
 label:         146 Au_bulk                       10 dxz    
 label:         147 Au_bulk                       10 dx2-y2 
 label:         148 Au_bulk                       10 Ppy    
 label:         149 Au_bulk                       10 Ppz    
 label:         150 Au_bulk                       10 Ppx    
 label:         151 Au_bulk                       11 s      
 label:         152 Au_bulk                       11 s      
 label:         153 Au_bulk                       11 dxy    
 label:         154 Au_bulk                       11 dyz    
 label:         155 Au_bulk                       11 dz2    
 label:         156 Au_bulk                       11 dxz    
 label:         157 Au_bulk                       11 dx2-y2 
 label:         158 Au_bulk                       11 dxy    
 label:         159 Au_bulk                       11 dyz    
 label:         160 Au_bulk                       11 dz2    
 label:         161 Au_bulk                       11 dxz    
 label:         162 Au_bulk                       11 dx2-y2 
 label:         163 Au_bulk                       11 Ppy    
 label:         164 Au_bulk                       11 Ppz    
 label:         165 Au_bulk                       11 Ppx    
 label:         166 Au_bulk                       12 s      
 label:         167 Au_bulk                       12 s      
 label:         168 Au_bulk                       12 dxy    
 label:         169 Au_bulk                       12 dyz    
 label:         170 Au_bulk                       12 dz2    
 label:         171 Au_bulk                       12 dxz    
 label:         172 Au_bulk                       12 dx2-y2 
 label:         173 Au_bulk                       12 dxy    
 label:         174 Au_bulk                       12 dyz    
 label:         175 Au_bulk                       12 dz2    
 label:         176 Au_bulk                       12 dxz    
 label:         177 Au_bulk                       12 dx2-y2 
 label:         178 Au_bulk                       12 Ppy    
 label:         179 Au_bulk                       12 Ppz    
 label:         180 Au_bulk                       12 Ppx    
 label:         181 Au_bulk                       13 s      
 label:         182 Au_bulk                       13 s      
 label:         183 Au_bulk                       13 dxy    
 label:         184 Au_bulk                       13 dyz    
 label:         185 Au_bulk                       13 dz2    
 label:         186 Au_bulk                       13 dxz    
 label:         187 Au_bulk                       13 dx2-y2 
 label:         188 Au_bulk                       13 dxy    
 label:         189 Au_bulk                       13 dyz    
 label:         190 Au_bulk                       13 dz2    
 label:         191 Au_bulk                       13 dxz    
 label:         192 Au_bulk                       13 dx2-y2 
 label:         193 Au_bulk                       13 Ppy    
 label:         194 Au_bulk                       13 Ppz    
 label:         195 Au_bulk                       13 Ppx    
 label:         196 Au_bulk                       14 s      
 label:         197 Au_bulk                       14 s      
 label:         198 Au_bulk                       14 dxy    
 label:         199 Au_bulk                       14 dyz    
 label:         200 Au_bulk                       14 dz2    
 label:         201 Au_bulk                       14 dxz    
 label:         202 Au_bulk                       14 dx2-y2 
 label:         203 Au_bulk                       14 dxy    
 label:         204 Au_bulk                       14 dyz    
 label:         205 Au_bulk                       14 dz2    
 label:         206 Au_bulk                       14 dxz    
 label:         207 Au_bulk                       14 dx2-y2 
 label:         208 Au_bulk                       14 Ppy    
 label:         209 Au_bulk                       14 Ppz    
 label:         210 Au_bulk                       14 Ppx    
 label:         211 Au_bulk                       15 s      
 label:         212 Au_bulk                       15 s      
 label:         213 Au_bulk                       15 dxy    
 label:         214 Au_bulk                       15 dyz    
 label:         215 Au_bulk                       15 dz2    
 label:         216 Au_bulk                       15 dxz    
 label:         217 Au_bulk                       15 dx2-y2 
 label:         218 Au_bulk                       15 dxy    
 label:         219 Au_bulk                       15 dyz    
 label:         220 Au_bulk                       15 dz2    
 label:         221 Au_bulk                       15 dxz    
 label:         222 Au_bulk                       15 dx2-y2 
 label:         223 Au_bulk                       15 Ppy    
 label:         224 Au_bulk                       15 Ppz    
 label:         225 Au_bulk                       15 Ppx    
 label:         226 Au_bulk                       16 s      
 label:         227 Au_bulk                       16 s      
 label:         228 Au_bulk                       16 dxy    
 label:         229 Au_bulk                       16 dyz    
 label:         230 Au_bulk                       16 dz2    
 label:         231 Au_bulk                       16 dxz    
 label:         232 Au_bulk                       16 dx2-y2 
 label:         233 Au_bulk                       16 dxy    
 label:         234 Au_bulk                       16 dyz    
 label:         235 Au_bulk                       16 dz2    
 label:         236 Au_bulk                       16 dxz    
 label:         237 Au_bulk                       16 dx2-y2 
 label:         238 Au_bulk                       16 Ppy    
 label:         239 Au_bulk                       16 Ppz    
 label:         240 Au_bulk                       16 Ppx    
 label:         241 Au_bulk                       17 s      
 label:         242 Au_bulk                       17 s      
 label:         243 Au_bulk                       17 dxy    
 label:         244 Au_bulk                       17 dyz    
 label:         245 Au_bulk                       17 dz2    
 label:         246 Au_bulk                       17 dxz    
 label:         247 Au_bulk                       17 dx2-y2 
 label:         248 Au_bulk                       17 dxy    
 label:         249 Au_bulk                       17 dyz    
 label:         250 Au_bulk                       17 dz2    
 label:         251 Au_bulk                       17 dxz    
 label:         252 Au_bulk                       17 dx2-y2 
 label:         253 Au_bulk                       17 Ppy    
 label:         254 Au_bulk                       17 Ppz    
 label:         255 Au_bulk                       17 Ppx    
 label:         256 Au_bulk                       18 s      
 label:         257 Au_bulk                       18 s      
 label:         258 Au_bulk                       18 dxy    
 label:         259 Au_bulk                       18 dyz    
 label:         260 Au_bulk                       18 dz2    
 label:         261 Au_bulk                       18 dxz    
 label:         262 Au_bulk                       18 dx2-y2 
 label:         263 Au_bulk                       18 dxy    
 label:         264 Au_bulk                       18 dyz    
 label:         265 Au_bulk                       18 dz2    
 label:         266 Au_bulk                       18 dxz    
 label:         267 Au_bulk                       18 dx2-y2 
 label:         268 Au_bulk                       18 Ppy    
 label:         269 Au_bulk                       18 Ppz    
 label:         270 Au_bulk                       18 Ppx    
 label:         271 Au_bulk                       19 s      
 label:         272 Au_bulk                       19 s      
 label:         273 Au_bulk                       19 dxy    
 label:         274 Au_bulk                       19 dyz    
 label:         275 Au_bulk                       19 dz2    
 label:         276 Au_bulk                       19 dxz    
 label:         277 Au_bulk                       19 dx2-y2 
 label:         278 Au_bulk                       19 dxy    
 label:         279 Au_bulk                       19 dyz    
 label:         280 Au_bulk                       19 dz2    
 label:         281 Au_bulk                       19 dxz    
 label:         282 Au_bulk                       19 dx2-y2 
 label:         283 Au_bulk                       19 Ppy    
 label:         284 Au_bulk                       19 Ppz    
 label:         285 Au_bulk                       19 Ppx    
 label:         286 Au_bulk                       20 s      
 label:         287 Au_bulk                       20 s      
 label:         288 Au_bulk                       20 dxy    
 label:         289 Au_bulk                       20 dyz    
 label:         290 Au_bulk                       20 dz2    
 label:         291 Au_bulk                       20 dxz    
 label:         292 Au_bulk                       20 dx2-y2 
 label:         293 Au_bulk                       20 dxy    
 label:         294 Au_bulk                       20 dyz    
 label:         295 Au_bulk                       20 dz2    
 label:         296 Au_bulk                       20 dxz    
 label:         297 Au_bulk                       20 dx2-y2 
 label:         298 Au_bulk                       20 Ppy    
 label:         299 Au_bulk                       20 Ppz    
 label:         300 Au_bulk                       20 Ppx    
 label:         301 Au_bulk                       21 s      
 label:         302 Au_bulk                       21 s      
 label:         303 Au_bulk                       21 dxy    
 label:         304 Au_bulk                       21 dyz    
 label:         305 Au_bulk                       21 dz2    
 label:         306 Au_bulk                       21 dxz    
 label:         307 Au_bulk                       21 dx2-y2 
 label:         308 Au_bulk                       21 dxy    
 label:         309 Au_bulk                       21 dyz    
 label:         310 Au_bulk                       21 dz2    
 label:         311 Au_bulk                       21 dxz    
 label:         312 Au_bulk                       21 dx2-y2 
 label:         313 Au_bulk                       21 Ppy    
 label:         314 Au_bulk                       21 Ppz    
 label:         315 Au_bulk                       21 Ppx    
 label:         316 Au_bulk                       22 s      
 label:         317 Au_bulk                       22 s      
 label:         318 Au_bulk                       22 dxy    
 label:         319 Au_bulk                       22 dyz    
 label:         320 Au_bulk                       22 dz2    
 label:         321 Au_bulk                       22 dxz    
 label:         322 Au_bulk                       22 dx2-y2 
 label:         323 Au_bulk                       22 dxy    
 label:         324 Au_bulk                       22 dyz    
 label:         325 Au_bulk                       22 dz2    
 label:         326 Au_bulk                       22 dxz    
 label:         327 Au_bulk                       22 dx2-y2 
 label:         328 Au_bulk                       22 Ppy    
 label:         329 Au_bulk                       22 Ppz    
 label:         330 Au_bulk                       22 Ppx    
 label:         331 Au_bulk                       23 s      
 label:         332 Au_bulk                       23 s      
 label:         333 Au_bulk                       23 dxy    
 label:         334 Au_bulk                       23 dyz    
 label:         335 Au_bulk                       23 dz2    
 label:         336 Au_bulk                       23 dxz    
 label:         337 Au_bulk                       23 dx2-y2 
 label:         338 Au_bulk                       23 dxy    
 label:         339 Au_bulk                       23 dyz    
 label:         340 Au_bulk                       23 dz2    
 label:         341 Au_bulk                       23 dxz    
 label:         342 Au_bulk                       23 dx2-y2 
 label:         343 Au_bulk                       23 Ppy    
 label:         344 Au_bulk                       23 Ppz    
 label:         345 Au_bulk                       23 Ppx    
 label:         346 Au_bulk                       24 s      
 label:         347 Au_bulk                       24 s      
 label:         348 Au_bulk                       24 dxy    
 label:         349 Au_bulk                       24 dyz    
 label:         350 Au_bulk                       24 dz2    
 label:         351 Au_bulk                       24 dxz    
 label:         352 Au_bulk                       24 dx2-y2 
 label:         353 Au_bulk                       24 dxy    
[...]
 label:        2128 Au_bulk                      164 dxz    
 label:        2129 Au_bulk                      164 dx2-y2 
 label:        2130 Au_bulk                      164 Ppy    
 label:        2131 Au_bulk                      164 Ppz    
 label:        2132 Au_bulk                      164 Ppx    
 label:        2133 Au_bulk                      165 s      
 label:        2134 Au_bulk                      165 s      
 label:        2135 Au_bulk                      165 dxy    
 label:        2136 Au_bulk                      165 dyz    
 label:        2137 Au_bulk                      165 dz2    
 label:        2138 Au_bulk                      165 dxz    
 label:        2139 Au_bulk                      165 dx2-y2 
 label:        2140 Au_bulk                      165 dxy    
 label:        2141 Au_bulk                      165 dyz    
 label:        2142 Au_bulk                      165 dz2    
 label:        2143 Au_bulk                      165 dxz    
 label:        2144 Au_bulk                      165 dx2-y2 
 label:        2145 Au_bulk                      165 Ppy    
 label:        2146 Au_bulk                      165 Ppz    
 label:        2147 Au_bulk                      165 Ppx    
 label:        2148 Au_bulk                      166 s      
 label:        2149 Au_bulk                      166 s      
 label:        2150 Au_bulk                      166 dxy    
 label:        2151 Au_bulk                      166 dyz    
 label:        2152 Au_bulk                      166 dz2    
 label:        2153 Au_bulk                      166 dxz    
 label:        2154 Au_bulk                      166 dx2-y2 
 label:        2155 Au_bulk                      166 dxy    
 label:        2156 Au_bulk                      166 dyz    
 label:        2157 Au_bulk                      166 dz2    
 label:        2158 Au_bulk                      166 dxz    
 label:        2159 Au_bulk                      166 dx2-y2 
 label:        2160 Au_bulk                      166 Ppy    
 label:        2161 Au_bulk                      166 Ppz    
 label:        2162 Au_bulk                      166 Ppx    
 label:        2163 Au_bulk                      167 s      
 label:        2164 Au_bulk                      167 s      
 label:        2165 Au_bulk                      167 dxy    
 label:        2166 Au_bulk                      167 dyz    
 label:        2167 Au_bulk                      167 dz2    
 label:        2168 Au_bulk                      167 dxz    
 label:        2169 Au_bulk                      167 dx2-y2 
 label:        2170 Au_bulk                      167 dxy    
 label:        2171 Au_bulk                      167 dyz    
 label:        2172 Au_bulk                      167 dz2    
 label:        2173 Au_bulk                      167 dxz    
 label:        2174 Au_bulk                      167 dx2-y2 
 label:        2175 Au_bulk                      167 Ppy    
 label:        2176 Au_bulk                      167 Ppz    
 label:        2177 Au_bulk                      167 Ppx    
 label:        2178 Au_bulk                      168 s      
 label:        2179 Au_bulk                      168 s      
 label:        2180 Au_bulk                      168 dxy    
 label:        2181 Au_bulk                      168 dyz    
 label:        2182 Au_bulk                      168 dz2    
 label:        2183 Au_bulk                      168 dxz    
 label:        2184 Au_bulk                      168 dx2-y2 
 label:        2185 Au_bulk                      168 dxy    
 label:        2186 Au_bulk                      168 dyz    
 label:        2187 Au_bulk                      168 dz2    
 label:        2188 Au_bulk                      168 dxz    
 label:        2189 Au_bulk                      168 dx2-y2 
 label:        2190 Au_bulk                      168 Ppy    
 label:        2191 Au_bulk                      168 Ppz    
 label:        2192 Au_bulk                      168 Ppx    
 label:        2193 Au_bulk                      169 s      
 label:        2194 Au_bulk                      169 s      
 label:        2195 Au_bulk                      169 dxy    
 label:        2196 Au_bulk                      169 dyz    
 label:        2197 Au_bulk                      169 dz2    
 label:        2198 Au_bulk                      169 dxz    
 label:        2199 Au_bulk                      169 dx2-y2 
 label:        2200 Au_bulk                      169 dxy    
 label:        2201 Au_bulk                      169 dyz    
 label:        2202 Au_bulk                      169 dz2    
 label:        2203 Au_bulk                      169 dxz    
 label:        2204 Au_bulk                      169 dx2-y2 
 label:        2205 Au_bulk                      169 Ppy    
 label:        2206 Au_bulk                      169 Ppz    
 label:        2207 Au_bulk                      169 Ppx    
 label:        2208 Au_bulk                      170 s      
 label:        2209 Au_bulk                      170 s      
 label:        2210 Au_bulk                      170 dxy    
 label:        2211 Au_bulk                      170 dyz    
 label:        2212 Au_bulk                      170 dz2    
 label:        2213 Au_bulk                      170 dxz    
 label:        2214 Au_bulk                      170 dx2-y2 
 label:        2215 Au_bulk                      170 dxy    
 label:        2216 Au_bulk                      170 dyz    
 label:        2217 Au_bulk                      170 dz2    
 label:        2218 Au_bulk                      170 dxz    
 label:        2219 Au_bulk                      170 dx2-y2 
 label:        2220 Au_bulk                      170 Ppy    
 label:        2221 Au_bulk                      170 Ppz    
 label:        2222 Au_bulk                      170 Ppx    
 label:        2223 Au_bulk                      171 s      
 label:        2224 Au_bulk                      171 s      
 label:        2225 Au_bulk                      171 dxy    
 label:        2226 Au_bulk                      171 dyz    
 label:        2227 Au_bulk                      171 dz2    
 label:        2228 Au_bulk                      171 dxz    
 label:        2229 Au_bulk                      171 dx2-y2 
 label:        2230 Au_bulk                      171 dxy    
 label:        2231 Au_bulk                      171 dyz    
 label:        2232 Au_bulk                      171 dz2    
 label:        2233 Au_bulk                      171 dxz    
 label:        2234 Au_bulk                      171 dx2-y2 
 label:        2235 Au_bulk                      171 Ppy    
 label:        2236 Au_bulk                      171 Ppz    
 label:        2237 Au_bulk                      171 Ppx    
 label:        2238 Au_bulk                      172 s      
 label:        2239 Au_bulk                      172 s      
 label:        2240 Au_bulk                      172 dxy    
 label:        2241 Au_bulk                      172 dyz    
 label:        2242 Au_bulk                      172 dz2    
 label:        2243 Au_bulk                      172 dxz    
 label:        2244 Au_bulk                      172 dx2-y2 
 label:        2245 Au_bulk                      172 dxy    
 label:        2246 Au_bulk                      172 dyz    
 label:        2247 Au_bulk                      172 dz2    
 label:        2248 Au_bulk                      172 dxz    
 label:        2249 Au_bulk                      172 dx2-y2 
 label:        2250 Au_bulk                      172 Ppy    
 label:        2251 Au_bulk                      172 Ppz    
 label:        2252 Au_bulk                      172 Ppx    
 label:        2253 Au_bulk                      173 s      
 label:        2254 Au_bulk                      173 s      
 label:        2255 Au_bulk                      173 dxy    
 label:        2256 Au_bulk                      173 dyz    
 label:        2257 Au_bulk                      173 dz2    
 label:        2258 Au_bulk                      173 dxz    
 label:        2259 Au_bulk                      173 dx2-y2 
 label:        2260 Au_bulk                      173 dxy    
 label:        2261 Au_bulk                      173 dyz    
 label:        2262 Au_bulk                      173 dz2    
 label:        2263 Au_bulk                      173 dxz    
 label:        2264 Au_bulk                      173 dx2-y2 
 label:        2265 Au_bulk                      173 Ppy    
 label:        2266 Au_bulk                      173 Ppz    
 label:        2267 Au_bulk                      173 Ppx    
 label:        2268 Au_bulk                      174 s      
 label:        2269 Au_bulk                      174 s      
 label:        2270 Au_bulk                      174 dxy    
 label:        2271 Au_bulk                      174 dyz    
 label:        2272 Au_bulk                      174 dz2    
 label:        2273 Au_bulk                      174 dxz    
 label:        2274 Au_bulk                      174 dx2-y2 
 label:        2275 Au_bulk                      174 dxy    
 label:        2276 Au_bulk                      174 dyz    
 label:        2277 Au_bulk                      174 dz2    
 label:        2278 Au_bulk                      174 dxz    
 label:        2279 Au_bulk                      174 dx2-y2 
 label:        2280 Au_bulk                      174 Ppy    
 label:        2281 Au_bulk                      174 Ppz    
 label:        2282 Au_bulk                      174 Ppx    
 label:        2283 Au_bulk                      175 s      
 label:        2284 Au_bulk                      175 s      
 label:        2285 Au_bulk                      175 dxy    
 label:        2286 Au_bulk                      175 dyz    
 label:        2287 Au_bulk                      175 dz2    
 label:        2288 Au_bulk                      175 dxz    
 label:        2289 Au_bulk                      175 dx2-y2 
 label:        2290 Au_bulk                      175 dxy    
 label:        2291 Au_bulk                      175 dyz    
 label:        2292 Au_bulk                      175 dz2    
 label:        2293 Au_bulk                      175 dxz    
 label:        2294 Au_bulk                      175 dx2-y2 
 label:        2295 Au_bulk                      175 Ppy    
 label:        2296 Au_bulk                      175 Ppz    
 label:        2297 Au_bulk                      175 Ppx    
 label:        2298 Au_bulk                      176 s      
 label:        2299 Au_bulk                      176 s      
 label:        2300 Au_bulk                      176 dxy    
 label:        2301 Au_bulk                      176 dyz    
 label:        2302 Au_bulk                      176 dz2    
 label:        2303 Au_bulk                      176 dxz    
 label:        2304 Au_bulk                      176 dx2-y2 
 label:        2305 Au_bulk                      176 dxy    
 label:        2306 Au_bulk                      176 dyz    
 label:        2307 Au_bulk                      176 dz2    
 label:        2308 Au_bulk                      176 dxz    
 label:        2309 Au_bulk                      176 dx2-y2 
 label:        2310 Au_bulk                      176 Ppy    
 label:        2311 Au_bulk                      176 Ppz    
 label:        2312 Au_bulk                      176 Ppx    
 label:        2313 Au_bulk                      177 s      
 label:        2314 Au_bulk                      177 s      
 label:        2315 Au_bulk                      177 dxy    
 label:        2316 Au_bulk                      177 dyz    
 label:        2317 Au_bulk                      177 dz2    
 label:        2318 Au_bulk                      177 dxz    
 label:        2319 Au_bulk                      177 dx2-y2 
 label:        2320 Au_bulk                      177 dxy    
 label:        2321 Au_bulk                      177 dyz    
 label:        2322 Au_bulk                      177 dz2    
 label:        2323 Au_bulk                      177 dxz    
 label:        2324 Au_bulk                      177 dx2-y2 
 label:        2325 Au_bulk                      177 Ppy    
 label:        2326 Au_bulk                      177 Ppz    
 label:        2327 Au_bulk                      177 Ppx    
 label:        2328 Au_bulk                      178 s      
 label:        2329 Au_bulk                      178 s      
 label:        2330 Au_bulk                      178 dxy    
 label:        2331 Au_bulk                      178 dyz    
 label:        2332 Au_bulk                      178 dz2    
 label:        2333 Au_bulk                      178 dxz    
 label:        2334 Au_bulk                      178 dx2-y2 
 label:        2335 Au_bulk                      178 dxy    
 label:        2336 Au_bulk                      178 dyz    
 label:        2337 Au_bulk                      178 dz2    
 label:        2338 Au_bulk                      178 dxz    
 label:        2339 Au_bulk                      178 dx2-y2 
 label:        2340 Au_bulk                      178 Ppy    
 label:        2341 Au_bulk                      178 Ppz    
 label:        2342 Au_bulk                      178 Ppx    
 label:        2343 Au_bulk                      179 s      
 label:        2344 Au_bulk                      179 s      
 label:        2345 Au_bulk                      179 dxy    
 label:        2346 Au_bulk                      179 dyz    
 label:        2347 Au_bulk                      179 dz2    
 label:        2348 Au_bulk                      179 dxz    
 label:        2349 Au_bulk                      179 dx2-y2 
 label:        2350 Au_bulk                      179 dxy    
 label:        2351 Au_bulk                      179 dyz    
 label:        2352 Au_bulk                      179 dz2    
 label:        2353 Au_bulk                      179 dxz    
 label:        2354 Au_bulk                      179 dx2-y2 
 label:        2355 Au_bulk                      179 Ppy    
 label:        2356 Au_bulk                      179 Ppz    
 label:        2357 Au_bulk                      179 Ppx    
 label:        2358 Au_bulk                      180 s      
 label:        2359 Au_bulk                      180 s      
 label:        2360 Au_bulk                      180 dxy    
 label:        2361 Au_bulk                      180 dyz    
 label:        2362 Au_bulk                      180 dz2    
 label:        2363 Au_bulk                      180 dxz    
 label:        2364 Au_bulk                      180 dx2-y2 
 label:        2365 Au_bulk                      180 dxy    
 label:        2366 Au_bulk                      180 dyz    
 label:        2367 Au_bulk                      180 dz2    
 label:        2368 Au_bulk                      180 dxz    
 label:        2369 Au_bulk                      180 dx2-y2 
 label:        2370 Au_bulk                      180 Ppy    
 label:        2371 Au_bulk                      180 Ppz    
 label:        2372 Au_bulk                      180 Ppx    
 label:        2373 Au_bulk                      181 s      
 label:        2374 Au_bulk                      181 s      
 label:        2375 Au_bulk                      181 dxy    
 label:        2376 Au_bulk                      181 dyz    
 label:        2377 Au_bulk                      181 dz2    
 label:        2378 Au_bulk                      181 dxz    
 label:        2379 Au_bulk                      181 dx2-y2 
 label:        2380 Au_bulk                      181 dxy    
 label:        2381 Au_bulk                      181 dyz    
 label:        2382 Au_bulk                      181 dz2    
 label:        2383 Au_bulk                      181 dxz    
 label:        2384 Au_bulk                      181 dx2-y2 
 label:        2385 Au_bulk                      181 Ppy    
 label:        2386 Au_bulk                      181 Ppz    
 label:        2387 Au_bulk                      181 Ppx    
 label:        2388 Au_bulk                      182 s      
 label:        2389 Au_bulk                      182 s      
 label:        2390 Au_bulk                      182 dxy    
 label:        2391 Au_bulk                      182 dyz    
 label:        2392 Au_bulk                      182 dz2    
 label:        2393 Au_bulk                      182 dxz    
 label:        2394 Au_bulk                      182 dx2-y2 
 label:        2395 Au_bulk                      182 dxy    
 label:        2396 Au_bulk                      182 dyz    
 label:        2397 Au_bulk                      182 dz2    
 label:        2398 Au_bulk                      182 dxz    
 label:        2399 Au_bulk                      182 dx2-y2 
 label:        2400 Au_bulk                      182 Ppy    
 label:        2401 Au_bulk                      182 Ppz    
 label:        2402 Au_bulk                      182 Ppx    
 label:        2403 Au_bulk                      183 s      
 label:        2404 Au_bulk                      183 s      
 label:        2405 Au_bulk                      183 dxy    
 label:        2406 Au_bulk                      183 dyz    
 label:        2407 Au_bulk                      183 dz2    
 label:        2408 Au_bulk                      183 dxz    
 label:        2409 Au_bulk                      183 dx2-y2 
 label:        2410 Au_bulk                      183 dxy    
 label:        2411 Au_bulk                      183 dyz    
 label:        2412 Au_bulk                      183 dz2    
 label:        2413 Au_bulk                      183 dxz    
 label:        2414 Au_bulk                      183 dx2-y2 
 label:        2415 Au_bulk                      183 Ppy    
 label:        2416 Au_bulk                      183 Ppz    
 label:        2417 Au_bulk                      183 Ppx    

superc: Internal auxiliary supercell:     1 x     3 x     1  =       3
superc: Number of atoms, orbitals, and projectors:    549  7251  8700
 
* Maximum dynamic memory allocated =     5 MB

siesta:                 ==============================
SMEAGOL                 Bias step =    0, V =  0.073 Ry
                            Begin CG move =      0
                        ==============================

superc: Internal auxiliary supercell:     1 x     3 x     1  =       3
superc: Number of atoms, orbitals, and projectors:    549  7251  8700

xijorb: WARNING: orbital pair   1025  3372 is multiply connected


read_ldau The LDA+U method used is from Czyzky PRB 49 14211
 NSCOBlocks=           0

InitMesh: MESH =   128 x    80 x   320 =     3276800
InitMesh: Mesh cutoff (required, used) =   200.000   212.955 Ry
 
* Maximum dynamic memory allocated =    55 MB
siesta: reading saved Hamiltonian
siesta: saved Hamiltonian not found

siesta: Program's energy decomposition (eV):
siesta: Eions   =    209125.473429
siesta: Ena     =     11459.315759
siesta: Ekin    =    120343.321538
siesta: Enl     =    -45882.640311
siesta: DEna    =         0.000000
siesta: DUscf   =         0.000000
siesta: DUext   =         0.000000
siesta: Exc     =    -72303.056148
siesta: eta*DQ  =         0.000000
siesta: Emadel  =         0.000000
siesta: Eharris =   -199820.420340
siesta: Eso     =         0.000000
siesta: Etot    =   -195508.532591
siesta: FreeEng =   -195508.532591

siesta: iscf   Eharris(eV)      E_KS(eV)   FreeEng(eV)     dDmax   Ef(eV)
siesta:    1  -199820.4203  -195508.5326  -195508.5326 100.41735   0.0000
timer: Routine,Calls,Time,% = IterSCF        1    9052.290  96.24
siesta:    2  -207672.3133  -183792.4070  -183792.4070  33.89228   0.0000
siesta:    3  1305998.0106   773876.9209   773876.9209 286.00726   0.0000
siesta:    4  1815377.1049  1867191.5243  1867191.5243 374.81643   0.0000
siesta:    5   837171.8180   835398.7422   835398.7422 286.94544   0.0000
siesta:    6   848320.9472   875978.1623   875978.1623 326.24463   0.0000
siesta:    7   922249.5963   913159.6854   913159.6854 262.50806   0.0000
siesta:    8   869044.3240   859764.2641   859764.2641 327.84279   0.0000
siesta:    9   844910.2254   844864.4502   844864.4502 216.54637   0.0000
