#     Step Nr.          Time[fs]        Kin.[a.u.]          Temp[K]            Pot.[a.u.]        Cons Qty[a.u.]        UsedTime[s]
      2001         1000.500000         0.718675310       297.235681732     -9597.476589300     -9596.716231465      5452.549558100
      2002         1001.000000         0.718450336       297.142635034     -9597.477825256     -9596.716396446      2046.513149846
      2003         1001.500000         0.721540830       298.420827283     -9597.480666192     -9596.716617939      2155.611877294
      2004         1002.000000         0.723585081       299.266305458     -9597.482693884     -9596.716751804      2227.333255303
      2005         1002.500000         0.723900246       299.396653913     -9597.482634155     -9596.716735872      2030.831542468
      2006         1003.000000         0.721707217       298.489642936     -9597.481245548     -9596.716653027      2110.184928161
      2007         1003.500000         0.718988120       297.365056430     -9597.480319971     -9596.716636169      1830.176183540
      2008         1004.000000         0.718744158       297.264156236     -9597.480747462     -9596.716742743      2530.329209756
      2009         1004.500000         0.719101452       297.411928838     -9597.481414485     -9596.716941338      1991.796566820
      2010         1005.000000         0.717179494       296.617029820     -9597.479856637     -9596.717085517      1945.520243264
      2011         1005.500000         0.710993091       294.058406146     -9597.474379144     -9596.717080396      2746.208878941
      2012         1006.000000         0.703980063       291.157899812     -9597.465544136     -9596.716908136      2639.946616637
      2013         1006.500000         0.695483070       287.643643165     -9597.456142601     -9596.716680895      1904.669377873
      2014         1007.000000         0.688880600       284.912938789     -9597.449642429     -9596.716540767      1909.252417171
      2015         1007.500000         0.687554965       284.364671733     -9597.448321430     -9596.716529640      1963.805118287
      2016         1008.000000         0.691843419       286.138326364     -9597.452456726     -9596.716629975      1840.406497850
      2017         1008.500000         0.699489264       289.300557942     -9597.460671210     -9596.716770619      2798.947553331
      2018         1009.000000         0.707812680       292.743025161     -9597.470836250     -9596.716950097      1893.563478802
      2019         1009.500000         0.717694661       296.830096871     -9597.480403919     -9596.717150111      2008.953481343
      2020         1010.000000         0.722432477       298.789602078     -9597.486739792     -9596.717303889      2243.909529158
      2021         1010.500000         0.721457181       298.386231095     -9597.488131055     -9596.717322070      2059.030119047
      2022         1011.000000         0.716876149       296.491569955     -9597.484988209     -9596.717190947      2277.755474898
      2023         1011.500000         0.712986339       294.882789936     -9597.480007231     -9596.716970374      2235.150697957
      2024         1012.000000         0.709735450       293.538260350     -9597.477043818     -9596.716783368      2161.437050786
      2025         1012.500000         0.711724275       294.360815028     -9597.479266530     -9596.716745523      2232.032273496
      2026         1013.000000         0.718064550       296.983078707     -9597.487566958     -9596.716852123      2602.720601464
      2027         1013.500000         0.730265151       302.029103859     -9597.500287621     -9596.717062563      2172.289338379
      2028         1014.000000         0.743928640       307.680162800     -9597.513905229     -9596.717298952      2065.485006992
      2029         1014.500000         0.756102778       312.715243722     -9597.524242590     -9596.717478206      2922.224113638
      2030         1015.000000         0.758686895       313.784004128     -9597.527856482     -9596.717545705      2049.508416240
      2031         1015.500000         0.753068876       311.460457200     -9597.523076659     -9596.717450607      2761.062261462
      2032         1016.000000         0.741933646       306.855056571     -9597.510576080     -9596.717219908      1901.308074926
      2033         1016.500000         0.725582746       300.092516040     -9597.493206660     -9596.716857080      1901.454939470
      2034         1017.000000         0.707686863       292.690988823     -9597.475781943     -9596.716449189      2754.708533504
      2035         1017.500000         0.697453720       288.458681033     -9597.463750631     -9596.716138139      2688.357265454
      2036         1018.000000         0.695571376       287.680165384     -9597.461154394     -9596.716055448      2012.328933222
      2037         1018.500000         0.702988984       290.748000986     -9597.468537379     -9596.716270997      2664.592115627
      2038         1019.000000         0.717743440       296.850271345     -9597.482101284     -9596.716700698      1865.647418673
      2039         1019.500000         0.730507602       302.129378762     -9597.495300417     -9596.717095128      1948.564334227
      2040         1020.000000         0.738253831       305.333128434     -9597.502328853     -9596.717259107      2072.163407995
      2041         1020.500000         0.736465436       304.593469012     -9597.500984667     -9596.717161695      2236.745890610
      2042         1021.000000         0.728334720       301.230700360     -9597.493257251     -9596.716921489      2573.113403486
      2043         1021.500000         0.718283342       297.073568441     -9597.483631883     -9596.716661315      2051.295263239
      2044         1022.000000         0.712442407       294.657826201     -9597.476806260     -9596.716517883      2235.573674848
      2045         1022.500000         0.710989274       294.056827177     -9597.475912701     -9596.716509008      2050.375664493
      2046         1023.000000         0.716208782       296.215554616     -9597.481980645     -9596.716603249      2741.217466370
      2047         1023.500000         0.728275370       301.206153759     -9597.494107478     -9596.716801777      2044.884224875
      2048         1024.000000         0.743082242       307.330102657     -9597.509565486     -9596.717087854      2061.799649258
      2049         1024.500000         0.756558320       312.903650373     -9597.524100357     -9596.717394721      2008.743498494
      2050         1025.000000         0.766779469       317.130998032     -9597.533000354     -9596.717602449      1743.824322190
      2051         1025.500000         0.765996017       316.806971265     -9597.532875480     -9596.717622874      1945.533152928
      2052         1026.000000         0.757161579       313.153151148     -9597.523265334     -9596.717408287      2532.772391420
      2053         1026.500000         0.741440047       306.650909999     -9597.507196589     -9596.717012601      2752.175234320
      2054         1027.000000         0.726269862       300.376699498     -9597.490386035     -9596.716572630      2078.563341215
      2055         1027.500000         0.715497185       295.921246567     -9597.479284034     -9596.716273497      2156.110490030
      2056         1028.000000         0.712929903       294.859448541     -9597.478100698     -9596.716264413      2099.848759730
      2057         1028.500000         0.722254830       298.716129320     -9597.486512758     -9596.716584853      2156.128163934
      2058         1029.000000         0.735569679       304.222994731     -9597.499665816     -9596.717037840      2810.849515753
      2059         1029.500000         0.746473576       308.732718489     -9597.510890055     -9596.717414395      1948.185023831
      2060         1030.000000         0.751226172       310.698336516     -9597.514950202     -9596.717537865      1948.106349441
      2061         1030.500000         0.746953239       308.931101412     -9597.510370832     -9596.717407783      2742.496898204
      2062         1031.000000         0.737708171       305.107449639     -9597.499821689     -9596.717107885      1906.339793040
      2063         1031.500000         0.726278547       300.380291503     -9597.488568426     -9596.716814278      2103.743524225
      2064         1032.000000         0.721124880       298.248795188     -9597.481807752     -9596.716670686      2811.217315243
      2065         1032.500000         0.723779461       299.346698582     -9597.482467252     -9596.716703012      2227.021911369
      2066         1033.000000         0.730071433       301.948984631     -9597.490555953     -9596.716884013      2177.720379341
      2067         1033.500000         0.742850566       307.234284221     -9597.503484300     -9596.717165807      2158.435128874
      2068         1034.000000         0.756918615       313.052664227     -9597.516760576     -9596.717463918      2224.330403144
      2069         1034.500000         0.764758089       316.294978954     -9597.525392813     -9596.717628468      2096.878226912
      2070         1035.000000         0.765204294       316.479523843     -9597.526100164     -9596.717564796      2049.311460330
      2071         1035.500000         0.757031217       313.099235187     -9597.518727031     -9596.717304675      2848.675679422
      2072         1036.000000         0.744694445       307.996890791     -9597.506131465     -9596.716945107      1800.304913294
      2073         1036.500000         0.732552381       302.975075482     -9597.492801591     -9596.716574641      1845.419668005
      2074         1037.000000         0.722942065       299.000361389     -9597.483434014     -9596.716261184      1945.928385583
      2075         1037.500000         0.721491091       298.400255708     -9597.481802395     -9596.716093388      2690.464814573
      2076         1038.000000         0.727892860       301.047952428     -9597.489384487     -9596.716204860      1941.216202322
      2077         1038.500000         0.740934815       306.441951787     -9597.503915217     -9596.716548910      4053.270601412
      2078         1039.000000         0.756364434       312.823461462     -9597.519811469     -9596.716976583      1939.775878132
      2079         1039.500000         0.767400176       317.387714834     -9597.530548497     -9596.717271119      2005.613725760
      2080         1040.000000         0.767409949       317.391756928     -9597.531923616     -9596.717268803      2644.066351635
      2081         1040.500000         0.759864428       314.271017761     -9597.524468419     -9596.716967386      2745.584828318
      2082         1041.000000         0.749902506       310.150884014     -9597.513320300     -9596.716546105      1752.290112354
      2083         1041.500000         0.741801023       306.800205242     -9597.505409797     -9596.716264804      1851.705487733
      2084         1042.000000         0.741690723       306.754586710     -9597.505638746     -9596.716269779      2000.848351631
      2085         1042.500000         0.749531075       309.997264342     -9597.514697504     -9596.716515032      2230.725732987
      2086         1043.000000         0.764098294       316.022095336     -9597.529408867     -9596.716877896      2901.261965468
      2087         1043.500000         0.779804839       322.518138138     -9597.544526820     -9596.717218573      2249.006322107
      2088         1044.000000         0.790956452       327.130314476     -9597.554970206     -9596.717426584      2657.855625780
      2089         1044.500000         0.792798564       327.892190251     -9597.557486946     -9596.717449902      2673.014459694
      2090         1045.000000         0.787227264       325.587966125     -9597.551515971     -9596.717316405      2593.305670055
      2091         1045.500000         0.775111474       320.577017402     -9597.538942500     -9596.717068191      2596.229223709
      2092         1046.000000         0.758611395       313.752778114     -9597.523394376     -9596.716772798      1844.404225184
      2093         1046.500000         0.746186449       308.613966135     -9597.509068138     -9596.716527057      1806.315769281
      2094         1047.000000         0.736726224       304.701327947     -9597.499355140     -9596.716383232      2524.197049352
      2095         1047.500000         0.735193126       304.067256610     -9597.496056909     -9596.716380801      1903.839160044
      2096         1048.000000         0.737426676       304.991026651     -9597.499079503     -9596.716512190      1968.945713404
      2097         1048.500000         0.744967321       308.109748999     -9597.506439904     -9596.716793370      2011.154289084
      2098         1049.000000         0.751919031       310.984895100     -9597.514270615     -9596.717135212      2013.765630657
      2099         1049.500000         0.755011079       312.263729801     -9597.517894081     -9596.717416229      2058.559020285
      2100         1050.000000         0.752934511       311.404885586     -9597.513958749     -9596.717461929      2754.023647787
      2101         1050.500000         0.742712398       307.177139625     -9597.502823295     -9596.717246416      1850.841995407
      2102         1051.000000         0.728970475       301.493641302     -9597.489009781     -9596.716900173      1921.352611343
      2103         1051.500000         0.718673066       297.234753594     -9597.478733684     -9596.716698928      1906.142462578
      2104         1052.000000         0.716954379       296.523924792     -9597.476154851     -9596.716760911      1944.182099452
      2105         1052.500000         0.720315389       297.913999102     -9597.481279208     -9596.717037645      2811.696523735
      2106         1053.000000         0.728258997       301.199382129     -9597.490579483     -9596.717367711      2051.777935689
      2107         1053.500000         0.736975885       304.804584927     -9597.499575844     -9596.717595021      2751.164253078
      2108         1054.000000         0.742981897       307.288601170     -9597.505063630     -9596.717688008      2066.547891130
      2109         1054.500000         0.743655663       307.567262972     -9597.505693488     -9596.717692605      2287.657257479
      2110         1055.000000         0.738730427       305.530242889     -9597.501752936     -9596.717592692      2661.911766370
      2111         1055.500000         0.732053298       302.768660845     -9597.494889981     -9596.717412013      2310.493361643
      2112         1056.000000         0.724567494       299.672619827     -9597.487607282     -9596.717230819      2245.298829213
      2113         1056.500000         0.719401262       297.535926960     -9597.482160300     -9596.717132868      2687.802405682
      2114         1057.000000         0.717311715       296.671714793     -9597.479550226     -9596.717113718      2055.161602029
      2115         1057.500000         0.716613251       296.382838142     -9597.479699491     -9596.717119858      2055.519666595
      2116         1058.000000         0.718813110       297.292674355     -9597.482150860     -9596.717151386      1946.053649128
      2117         1058.500000         0.722048827       298.630928672     -9597.486019847     -9596.717285252      2594.900597122
      2118         1059.000000         0.725874610       300.213227681     -9597.489395732     -9596.717445780      2058.626815224
      2119         1059.500000         0.726481486       300.464224715     -9597.490209122     -9596.717491695      1948.902440865
      2120         1060.000000         0.724639488       299.702395768     -9597.488116528     -9596.717366748      1958.285523365
      2121         1060.500000         0.723948280       299.416520415     -9597.485134916     -9596.717217911      1852.638653248
      2122         1061.000000         0.722251560       298.714776785     -9597.483770037     -9596.717178614      1841.337629197
      2123         1061.500000         0.722676613       298.890573832     -9597.485042254     -9596.717260480      1947.757966616
      2124         1062.000000         0.725320051       299.983868502     -9597.488241130     -9596.717334681      2840.221779792
      2125         1062.500000         0.730276263       302.033699647     -9597.492241991     -9596.717376718      1937.250608931
      2126         1063.000000         0.733409638       303.329627159     -9597.496404877     -9596.717392766      1838.821980617
      2127         1063.500000         0.737554671       305.043964192     -9597.500487250     -9596.717442881      1908.447493512
      2128         1064.000000         0.741499552       306.675520639     -9597.503849569     -9596.717545406      1950.365287852
      2129         1064.500000         0.742238314       306.981063764     -9597.505351873     -9596.717595731      1835.353551881
      2130         1065.000000         0.739787757       305.967542333     -9597.504581272     -9596.717555427      2999.093248030
      2131         1065.500000         0.738217932       305.318281117     -9597.502674537     -9596.717437105      2712.676629385
      2132         1066.000000         0.737856787       305.168915778     -9597.501587560     -9596.717386758      1895.107424000
      2133         1066.500000         0.738944272       305.618686869     -9597.502183037     -9596.717461314      2537.293679575
      2134         1067.000000         0.739176240       305.714625829     -9597.503492809     -9596.717576246      1903.047753703
      2135         1067.500000         0.740164346       306.123295131     -9597.503807583     -9596.717646624      2690.194982544
      2136         1068.000000         0.739235427       305.739104894     -9597.502107776     -9596.717614125      1846.413891636
      2137         1068.500000         0.736495167       304.605765463     -9597.498819599     -9596.717534277      1943.321750917
      2138         1069.000000         0.734500201       303.780671265     -9597.495330183     -9596.717423884      2741.668608349
      2139         1069.500000         0.732607220       302.997756487     -9597.493441249     -9596.717347578      2746.917266157
      2140         1070.000000         0.733861217       303.516394845     -9597.494643176     -9596.717351863      1854.767742675
      2141         1070.500000         0.738728194       305.529319516     -9597.499039595     -9596.717496955      1849.676117353
      2142         1071.000000         0.744398703       307.874575421     -9597.504574016     -9596.717734479      1792.850922508
      2143         1071.500000         0.747500437       309.157416205     -9597.508086984     -9596.717867561      1848.271054477
      2144         1072.000000         0.746106450       308.580879522     -9597.507686217     -9596.717835977      1795.786252652
      2145         1072.500000         0.741950254       306.861925438     -9597.503930665     -9596.717700760      1801.562247641
      2146         1073.000000         0.736648593       304.669220738     -9597.499075949     -9596.717582013      1786.571417842
      2147         1073.500000         0.733049390       303.180632712     -9597.495239986     -9596.717551324      1844.731072663
      2148         1074.000000         0.732497231       302.952266352     -9597.493457059     -9596.717550738      1845.031846373
      2149         1074.500000         0.733363241       303.310437724     -9597.494106753     -9596.717583931      1908.554202874
      2150         1075.000000         0.735858527       304.342458592     -9597.497168112     -9596.717657419      2531.266005177
      2151         1075.500000         0.741057488       306.492687989     -9597.501976997     -9596.717787218      1840.368967726
      2152         1076.000000         0.745834743       308.468504630     -9597.506983516     -9596.717923808      1790.690384837
      2153         1076.500000         0.749681404       310.059438820     -9597.510440682     -9596.718013617      2896.189399421
      2154         1077.000000         0.750392732       310.353635559     -9597.511271387     -9596.718003053      1839.861914818
      2155         1077.500000         0.748735720       309.668314993     -9597.509593673     -9596.717938172      5454.248596385
      2156         1078.000000         0.744792936       308.037625614     -9597.506418582     -9596.717853643      1780.966982255
      2157         1078.500000         0.739972903       306.044116480     -9597.503054484     -9596.717772894      1891.751482927
      2158         1079.000000         0.737319699       304.946782386     -9597.500534309     -9596.717714697      2421.169743337
      2159         1079.500000         0.736360267       304.549972344     -9597.499291964     -9596.717719148      1897.166781869
      2160         1080.000000         0.736856557       304.755232461     -9597.498901572     -9596.717765892      1848.911358423
      2161         1080.500000         0.736423172       304.575989403     -9597.498222509     -9596.717776282      1808.306489151
      2162         1081.000000         0.734040690       303.590622810     -9597.496285965     -9596.717734085      2568.836970399
      2163         1081.500000         0.731398389       302.497797848     -9597.493146009     -9596.717622322      2033.467703864
      2164         1082.000000         0.729518350       301.720236093     -9597.490000912     -9596.717494930      1855.820985342
      2165         1082.500000         0.728317914       301.223749665     -9597.488212926     -9596.717464413      1855.957188959
      2166         1083.000000         0.727997514       301.091235855     -9597.488147341     -9596.717508429      1741.442007169
      2167         1083.500000         0.727643004       300.944614907     -9597.489321483     -9596.717565863      2664.900267198
      2168         1084.000000         0.730345295       302.062250755     -9597.491338326     -9596.717591152      1745.456780812
      2169         1084.500000         0.732595751       302.993012991     -9597.494420511     -9596.717629094      1837.634745759
      2170         1085.000000         0.736725330       304.700958391     -9597.498887362     -9596.717726559      1864.049899506
      2171         1085.500000         0.742570084       307.118280028     -9597.504390218     -9596.717897755      1792.555634479
      2172         1086.000000         0.746538303       308.759488950     -9597.509701789     -9596.718057245      1785.326368034
      2173         1086.500000         0.751354730       310.751506535     -9597.513615321     -9596.718161942      1856.671959152
      2174         1087.000000         0.752656090       311.289733858     -9597.515765976     -9596.718172425      3049.955443557
      2175         1087.500000         0.754659245       312.118215430     -9597.516983786     -9596.718152990      1849.732849295
      2176         1088.000000         0.755744648       312.567125074     -9597.518572589     -9596.718154188      2541.177915228
      2177         1088.500000         0.757177164       313.159596955     -9597.521369729     -9596.718187754      2645.981904207
      2178         1089.000000         0.761918897       315.120722333     -9597.525409673     -9596.718233164      2847.454439768
      2179         1089.500000         0.765280459       316.511025055     -9597.530284523     -9596.718308419      1858.451122637
      2180         1090.000000         0.768900181       318.008099324     -9597.535073335     -9596.718398197      1855.169847702
      2181         1090.500000         0.772843115       319.638850629     -9597.538234753     -9596.718478146      1906.521894698
      2182         1091.000000         0.771564365       319.109974802     -9597.538164401     -9596.718501352      1951.139979926
      2183         1091.500000         0.769455232       318.237662186     -9597.534019794     -9596.718463210      1941.589796144
      2184         1092.000000         0.762321876       315.287389648     -9597.526054701     -9596.718349814      1989.689878574
      2185         1092.500000         0.752699525       311.307698131     -9597.515831580     -9596.718160144      1991.658796381
      2186         1093.000000         0.743297633       307.419185682     -9597.506239653     -9596.717918296      1902.823820578
      2187         1093.500000         0.737544512       305.039762313     -9597.500785764     -9596.717778015      1841.633947164
      2188         1094.000000         0.736625104       304.659506096     -9597.501490925     -9596.717897149      1797.140262545
      2189         1094.500000         0.741910044       306.845295420     -9597.507130565     -9596.718224443      1837.486201545
      2190         1095.000000         0.748174826       309.436335648     -9597.513880808     -9596.718568688      1890.441764353
      2191         1095.500000         0.752169273       311.088391904     -9597.517962696     -9596.718754612      1945.677301606
      2192         1096.000000         0.752194002       311.098619885     -9597.518022047     -9596.718765600      1890.511347896
      2193         1096.500000         0.749284981       309.895482713     -9597.515223321     -9596.718699113      1794.483345332
      2194         1097.000000         0.747385274       309.109785993     -9597.511786930     -9596.718659512      1897.031382218
      2195         1097.500000         0.744995822       308.121536804     -9597.509346670     -9596.718690461      1794.682544485
      2196         1098.000000         0.745037948       308.138959472     -9597.508221415     -9596.718765822      2725.316146431
      2197         1098.500000         0.745158031       308.188624470     -9597.507735162     -9596.718805051      3064.179014515
      2198         1099.000000         0.744889698       308.077645138     -9597.507341131     -9596.718753761      2695.060017865
      2199         1099.500000         0.744723601       308.008949548     -9597.507508762     -9596.718638490      1852.133790818
      2200         1100.000000         0.747037584       308.965985655     -9597.509204360     -9596.718590042      2796.579317254
      2201         1100.500000         0.747194499       309.030883918     -9597.512288122     -9596.718633735      2701.537430348
      2202         1101.000000         0.750658752       310.463658456     -9597.515114031     -9596.718682478      2041.375345867
      2203         1101.500000         0.751871710       310.965323325     -9597.515745526     -9596.718655387      1947.807237335
      2204         1102.000000         0.749398240       309.942325189     -9597.513257316     -9596.718539530      1937.785379313
      2205         1102.500000         0.744854271       308.062992970     -9597.508293066     -9596.718348279      1846.102974314
      2206         1103.000000         0.739177154       305.715003987     -9597.502771846     -9596.718176420      1738.071697565
      2207         1103.500000         0.735242489       304.087672804     -9597.498450989     -9596.718119475      2785.906161071
      2208         1104.000000         0.731450108       302.519188253     -9597.495719235     -9596.718168664      1782.389103217
      2209         1104.500000         0.730667191       302.195382877     -9597.493907838     -9596.718199114      1787.236854072
      2210         1105.000000         0.728486568       301.293502999     -9597.492888578     -9596.718157099      2531.853845385
      2211         1105.500000         0.728185404       301.168945162     -9597.493839059     -9596.718124282      2488.646447622
      2212         1106.000000         0.733586783       303.402892070     -9597.498103887     -9596.718184379      1846.498731158
      2213         1106.500000         0.740978715       306.460108329     -9597.505583693     -9596.718388419      1894.347936718
      2214         1107.000000         0.749348280       309.921662389     -9597.514136413     -9596.718671145      1897.803543337
      2215         1107.500000         0.754943845       312.235922587     -9597.520507007     -9596.718920596      1861.365172846
      2216         1108.000000         0.755531370       312.478915859     -9597.521941120     -9596.718989962      1850.607308943
      2217         1108.500000         0.751306136       310.731408847     -9597.518093997     -9596.718820930      2849.176753127
      2218         1109.000000         0.746163144       308.604327537     -9597.511922052     -9596.718478743      1744.834167246
      2219         1109.500000         0.743811481       307.631707228     -9597.508442367     -9596.718229372      1948.595982517
      2220         1110.000000         0.746663049       308.811082189     -9597.510853494     -9596.718303355      1802.486915900
      2221         1110.500000         0.753170804       311.502613728     -9597.517483976     -9596.718590741      2001.735706483
      2222         1111.000000         0.758735142       313.803958482     -9597.523305349     -9596.718778451      2743.148935576
      2223         1111.500000         0.759173656       313.985322781     -9597.524336147     -9596.718698063      2012.397728138
      2224         1112.000000         0.754950421       312.238642118     -9597.520393422     -9596.718407374      1949.080631224
      2225         1112.500000         0.747806765       309.284109745     -9597.514445802     -9596.718132737      1857.587702115
      2226         1113.000000         0.742193318       306.962453881     -9597.509589212     -9596.718024295      1790.545958065
      2227         1113.500000         0.739260769       305.749586090     -9597.506681862     -9596.718058319      1790.284814166
      2228         1114.000000         0.737539749       305.037792599     -9597.504808928     -9596.718053586      2483.965611205